Program Version,EnergyPlus, Version 8.7.0-78a111df4a, YMD=2019.05.27 21:39
1,5,Environment Title[],Latitude[deg],Longitude[deg],Time Zone[],Elevation[m]
2,6,Day of Simulation[],Month[],Day of Month[],DST Indicator[1=yes 0=no],Hour[],StartMinute[],EndMinute[],DayType
3,3,Cumulative Day of Simulation[],Month[],Day of Month[],DST Indicator[1=yes 0=no],DayType  ! When Daily Report Variables Requested
4,2,Cumulative Days of Simulation[],Month[]  ! When Monthly Report Variables Requested
5,1,Cumulative Days of Simulation[] ! When Run Period Report Variables Requested
4826,1,BEDROOM2.2,Zone Ideal Loads Zone Total Heating Energy [J] !Hourly
4827,1,BEDROOM2.2,Zone Ideal Loads Zone Total Cooling Energy [J] !Hourly
4973,1,BEDROOM2.2,Zone Thermal Comfort Fanger Model PMV [] !Hourly
End of Data Dictionary
1,RUNPERIOD,  29.58, 106.47,   8.00, 259.10
2,1, 1, 1, 0, 1, 0.00,60.00,Thursday
4973,-1.0573658382449256
4826,2272389.383926562
4827,8.81334472069284e-8
2,1, 1, 1, 0, 2, 0.00,60.00,Thursday
4973,-1.0502566046683093
4826,2284674.6592940969
4827,9.81231096375268e-8
2,1, 1, 1, 0, 3, 0.00,60.00,Thursday
4973,-1.042822084864454
4826,2223733.8992926857
4827,9.904397302307189e-8
2,1, 1, 1, 0, 4, 0.00,60.00,Thursday
4973,-1.0365695415577332
4826,2193884.6017078116
4827,4.788489604834467e-8
2,1, 1, 1, 0, 5, 0.00,60.00,Thursday
4973,-1.0334740261875806
4826,2212640.257302684
4827,7.152038961066865e-8
2,1, 1, 1, 0, 6, 0.00,60.00,Thursday
4973,-1.0334579601453898
4826,2236586.389252036
4827,8.021743269637227e-8
2,1, 1, 1, 0, 7, 0.00,60.00,Thursday
4973,-1.0355242446261706
4826,2255438.321774006
4827,8.093365977401845e-8
2,1, 1, 1, 0, 8, 0.00,60.00,Thursday
4973,-1.648503879370272
4826,0.0
4827,0.0
2,1, 1, 1, 0, 9, 0.00,60.00,Thursday
4973,-2.0316551834377969
4826,0.0
4827,0.0
2,1, 1, 1, 0,10, 0.00,60.00,Thursday
4973,-2.068306244771606
4826,0.0
4827,0.0
2,1, 1, 1, 0,11, 0.00,60.00,Thursday
4973,-2.0731733891655654
4826,0.0
4827,0.0
2,1, 1, 1, 0,12, 0.00,60.00,Thursday
4973,-2.0664838100766356
4826,0.0
4827,0.0
2,1, 1, 1, 0,13, 0.00,60.00,Thursday
4973,-2.0464179946001836
4826,0.0
4827,0.0
2,1, 1, 1, 0,14, 0.00,60.00,Thursday
4973,-2.008251737030267
4826,0.0
4827,0.0
2,1, 1, 1, 0,15, 0.00,60.00,Thursday
4973,-1.960581237911256
4826,0.0
4827,0.0
2,1, 1, 1, 0,16, 0.00,60.00,Thursday
4973,-1.9004246017086628
4826,0.0
4827,0.0
2,1, 1, 1, 0,17, 0.00,60.00,Thursday
4973,-1.8324135035941303
4826,0.0
4827,0.0
2,1, 1, 1, 0,18, 0.00,60.00,Thursday
4973,-1.772168353937062
4826,0.0
4827,0.0
2,1, 1, 1, 0,19, 0.00,60.00,Thursday
4973,-1.7276936660083325
4826,0.0
4827,0.0
2,1, 1, 1, 0,20, 0.00,60.00,Thursday
4973,-1.704009912699935
4826,0.0
4827,0.0
2,1, 1, 1, 0,21, 0.00,60.00,Thursday
4973,-1.7450367670145993
4826,0.0
4827,0.0
2,1, 1, 1, 0,22, 0.00,60.00,Thursday
4973,-1.2423060684455599
4826,2870073.178165702
4827,3.965510586567689e-8
2,1, 1, 1, 0,23, 0.00,60.00,Thursday
4973,-1.0661340455606193
4826,2149976.965893633
4827,2.660272002685815e-8
2,1, 1, 1, 0,24, 0.00,60.00,Thursday
4973,-1.0624129388179547
4826,2052658.51751728
4827,4.5224624045658859e-8
2,2, 1, 2, 0, 1, 0.00,60.00,Friday
4973,-1.06033476026692
4826,2247769.8033834265
4827,7.889225757522087e-8
2,2, 1, 2, 0, 2, 0.00,60.00,Friday
4973,-1.0587981485206293
4826,2248333.5473874497
4827,4.675939635490067e-8
2,2, 1, 2, 0, 3, 0.00,60.00,Friday
4973,-1.057909935595735
4826,2252978.8417144424
4827,2.752358341240324e-8
2,2, 1, 2, 0, 4, 0.00,60.00,Friday
4973,-1.0548918318809318
4826,2249254.2417083575
4827,7.244125299621374e-8
2,2, 1, 2, 0, 5, 0.00,60.00,Friday
4973,-1.0510007619836673
4826,2238252.318135476
4827,5.944684744463302e-8
2,2, 1, 2, 0, 6, 0.00,60.00,Friday
4973,-1.0470415475418367
4826,2230704.1860856155
4827,5.085212251287885e-8
2,2, 1, 2, 0, 7, 0.00,60.00,Friday
4973,-1.04317292747212
4826,2218952.0884285399
4827,2.2100721253082157e-8
2,2, 1, 2, 0, 8, 0.00,60.00,Friday
4973,-1.617282640264159
4826,0.0
4827,0.0
2,2, 1, 2, 0, 9, 0.00,60.00,Friday
4973,-1.953808137690702
4826,0.0
4827,0.0
2,2, 1, 2, 0,10, 0.00,60.00,Friday
4973,-1.933187703248753
4826,0.0
4827,0.0
2,2, 1, 2, 0,11, 0.00,60.00,Friday
4973,-1.914096999201407
4826,0.0
4827,0.0
2,2, 1, 2, 0,12, 0.00,60.00,Friday
4973,-1.8991873424522859
4826,0.0
4827,0.0
2,2, 1, 2, 0,13, 0.00,60.00,Friday
4973,-1.8825114072995369
4826,0.0
4827,0.0
2,2, 1, 2, 0,14, 0.00,60.00,Friday
4973,-1.8651401869951605
4826,0.0
4827,0.0
2,2, 1, 2, 0,15, 0.00,60.00,Friday
4973,-1.8366903478818755
4826,0.0
4827,0.0
2,2, 1, 2, 0,16, 0.00,60.00,Friday
4973,-1.8013374510870324
4826,0.0
4827,0.0
2,2, 1, 2, 0,17, 0.00,60.00,Friday
4973,-1.7802025976629923
4826,0.0
4827,0.0
2,2, 1, 2, 0,18, 0.00,60.00,Friday
4973,-1.8016324312328223
4826,0.0
4827,0.0
2,2, 1, 2, 0,19, 0.00,60.00,Friday
4973,-1.8455623067109262
4826,0.0
4827,0.0
2,2, 1, 2, 0,20, 0.00,60.00,Friday
4973,-1.874010611671166
4826,0.0
4827,0.0
2,2, 1, 2, 0,21, 0.00,60.00,Friday
4973,-1.9023725738540743
4826,0.0
4827,0.0
2,2, 1, 2, 0,22, 0.00,60.00,Friday
4973,-1.291482917109845
4826,3153013.4667842036
4827,9.663267519499641e-8
2,2, 1, 2, 0,23, 0.00,60.00,Friday
4973,-1.0751890118418226
4826,2188756.4151856948
4827,8.79936123965308e-9
2,2, 1, 2, 0,24, 0.00,60.00,Friday
4973,-1.0582806909646
4826,2076571.5844051713
4827,2.8546764951897786e-8
2,3, 1, 3, 0, 1, 0.00,60.00,Saturday
4973,-1.05141274317469
4826,2283656.9205301527
4827,8.22904605063906e-8
2,3, 1, 3, 0, 2, 0.00,60.00,Saturday
4973,-1.0491819724242769
4826,2318412.8410090964
4827,1.0794565241667442e-7
2,3, 1, 3, 0, 3, 0.00,60.00,Saturday
4973,-1.0516243600602926
4826,2332269.98812591
4827,9.935092748492025e-8
2,3, 1, 3, 0, 4, 0.00,60.00,Saturday
4973,-1.0535786280458067
4826,2330748.837297919
4827,9.750920071383007e-8
2,3, 1, 3, 0, 5, 0.00,60.00,Saturday
4973,-1.0537921705499225
4826,2318299.2082866479
4827,3.448121788096614e-8
2,3, 1, 3, 0, 6, 0.00,60.00,Saturday
4973,-1.0524297091416489
4826,2291075.0053532004
4827,7.213429853436537e-8
2,3, 1, 3, 0, 7, 0.00,60.00,Saturday
4973,-1.0491221455088032
4826,2245096.31714086
4827,6.098161975387484e-8
2,3, 1, 3, 0, 8, 0.00,60.00,Saturday
4973,-1.0439054891450295
4826,2194677.5715044427
4827,7.783341970934998e-8
2,3, 1, 3, 0, 9, 0.00,60.00,Saturday
4973,-1.039455219055921
4826,2196738.5791819796
4827,1.0160192687180825e-7
2,3, 1, 3, 0,10, 0.00,60.00,Saturday
4973,-1.0346296336556087
4826,2143807.4244241535
4827,6.793925422243774e-8
2,3, 1, 3, 0,11, 0.00,60.00,Saturday
4973,-1.0306029901284555
4826,2151021.5459905487
4827,3.141167326248251e-8
2,3, 1, 3, 0,12, 0.00,60.00,Saturday
4973,-1.027383266154768
4826,2106247.017891893
4827,4.368985173641704e-8
2,3, 1, 3, 0,13, 0.00,60.00,Saturday
4973,-1.0235520336598936
4826,2065602.309554531
4827,6.660911822109483e-8
2,3, 1, 3, 0,14, 0.00,60.00,Saturday
4973,-1.0195673263657888
4826,2028745.632998626
4827,1.944044925039634e-8
2,3, 1, 3, 0,15, 0.00,60.00,Saturday
4973,-1.0148727872942705
4826,1960568.3625750144
4827,1.4529177860822529e-8
2,3, 1, 3, 0,16, 0.00,60.00,Saturday
4973,-1.008658763899527
4826,1942884.9229760003
4827,8.431015885435045e-8
2,3, 1, 3, 0,17, 0.00,60.00,Saturday
4973,-1.0039329390864707
4826,1972732.4737315889
4827,7.121343514882028e-8
2,3, 1, 3, 0,18, 0.00,60.00,Saturday
4973,-0.9998170994474185
4826,1956430.6103098789
4827,4.440607881406322e-8
2,3, 1, 3, 0,19, 0.00,60.00,Saturday
4973,-0.9936453347225416
4826,1924514.0754422525
4827,6.497202775790356e-8
2,3, 1, 3, 0,20, 0.00,60.00,Saturday
4973,-0.9867194277606152
4826,1784224.3265214184
4827,1.7547563402331435e-8
2,3, 1, 3, 0,21, 0.00,60.00,Saturday
4973,-0.9790613210897721
4826,1714694.508752076
4827,3.5146285881637598e-8
2,3, 1, 3, 0,22, 0.00,60.00,Saturday
4973,-0.9712788401833621
4826,1688796.9140853873
4827,1.759872247930616e-8
2,3, 1, 3, 0,23, 0.00,60.00,Saturday
4973,-0.9651886330263626
4826,1677536.4332375713
4827,3.4634695111890326e-8
2,3, 1, 3, 0,24, 0.00,60.00,Saturday
4973,-0.9593442574189447
4826,1612163.9447795875
4827,7.21854576113401e-8
2,4, 1, 4, 0, 1, 0.00,60.00,Sunday
4973,-0.9559760527168691
4826,1749603.5681256925
4827,5.993898511621865
2,4, 1, 4, 0, 2, 0.00,60.00,Sunday
4973,-0.9519093712253747
4826,1750936.4794319822
4827,8.246843208326027e-8
2,4, 1, 4, 0, 3, 0.00,60.00,Sunday
4973,-0.9489785536093898
4826,1733180.7743519252
4827,5.484253051690757e-8
2,4, 1, 4, 0, 4, 0.00,60.00,Sunday
4973,-0.9460289311658041
4826,1720793.8736589254
4827,4.4917669583810496e-8
2,4, 1, 4, 0, 5, 0.00,60.00,Sunday
4973,-0.9427040482460798
4826,1712345.9294589093
4827,3.7755398807348686e-8
2,4, 1, 4, 0, 6, 0.00,60.00,Sunday
4973,-0.9391789314797291
4826,1708554.0868296002
4827,6.210711944731884e-8
2,4, 1, 4, 0, 7, 0.00,60.00,Sunday
4973,-0.9361061438453511
4826,1703659.9609833812
4827,2.5733015718287789e-8
2,4, 1, 4, 0, 8, 0.00,60.00,Sunday
4973,-0.9335935764456558
4826,1693032.2342099834
4827,4.0422492020297798e-8
2,4, 1, 4, 0, 9, 0.00,60.00,Sunday
4973,-0.9330845721370277
4826,1732214.670373171
4827,5.842366590513848e-8
2,4, 1, 4, 0,10, 0.00,60.00,Sunday
4973,-0.932879213982358
4826,1703957.7067877958
4827,5.1312554205651398e-8
2,4, 1, 4, 0,11, 0.00,60.00,Sunday
4973,-0.9328792243076876
4826,1731883.0555408006
4827,6.077698344597593e-8
2,4, 1, 4, 0,12, 0.00,60.00,Sunday
4973,-0.9349272825101526
4826,1696947.1090765014
4827,1.872422217275016e-8
2,4, 1, 4, 0,13, 0.00,60.00,Sunday
4973,-0.9354344513243884
4826,1653072.8340760254
4827,4.225739758112468e-8
2,4, 1, 4, 0,14, 0.00,60.00,Sunday
4973,-0.9353139952715361
4826,1596889.8243293563
4827,4.077378434885759e-8
2,4, 1, 4, 0,15, 0.00,60.00,Sunday
4973,-0.932165877929362
4826,1489112.9878675396
4827,6.12885742157232e-8
2,4, 1, 4, 0,16, 0.00,60.00,Sunday
4973,-0.9244006724781373
4826,1436836.6607165347
4827,2.5630697564338335e-8
2,4, 1, 4, 0,17, 0.00,60.00,Sunday
4973,-0.9166026783096146
4826,1472480.9584376449
4827,1.0968506103381515e-7
2,4, 1, 4, 0,18, 0.00,60.00,Sunday
4973,-0.9127008430160257
4826,1485765.5738336039
4827,2.1896084945183248e-8
2,4, 1, 4, 0,19, 0.00,60.00,Sunday
4973,-0.9094964918888887
4826,1501360.7041444402
4827,4.972662281943485e-8
2,4, 1, 4, 0,20, 0.00,60.00,Sunday
4973,-0.9060668842653635
4826,1407017.1706692309
4827,4.100400019524386e-8
2,4, 1, 4, 0,21, 0.00,60.00,Sunday
4973,-0.9042360447890215
4826,1375622.0439437018
4827,3.171862772433087e-8
2,4, 1, 4, 0,22, 0.00,60.00,Sunday
4973,-0.9024747570155145
4826,1373418.5044981456
4827,3.913669388566632e-8
2,4, 1, 4, 0,23, 0.00,60.00,Sunday
4973,-0.9005815479179975
4826,1370196.132662028
4827,5.6479620980098846e-8
2,4, 1, 4, 0,24, 0.00,60.00,Sunday
4973,-0.8985371207116315
4826,1305676.7344675128
4827,1.1715428627212532e-8
2,5, 1, 5, 0, 1, 0.00,60.00,Monday
4973,-0.8988111557148955
4826,1440386.6713166836
4827,0.5431999969897561
2,5, 1, 5, 0, 2, 0.00,60.00,Monday
4973,-0.8980738885017229
4826,1436292.3314807933
4827,1.67290181707358e-8
2,5, 1, 5, 0, 3, 0.00,60.00,Monday
4973,-0.8983836395220926
4826,1452021.924664947
4827,6.906475391588174e-8
2,5, 1, 5, 0, 4, 0.00,60.00,Monday
4973,-0.9004913145889875
4826,1470790.6059684342
4827,6.3437255448661748e-9
2,5, 1, 5, 0, 5, 0.00,60.00,Monday
4973,-0.9037551705375954
4826,1483532.182438134
4827,3.136051418550778e-8
2,5, 1, 5, 0, 6, 0.00,60.00,Monday
4973,-0.9066895369565653
4826,1497609.4256326378
4827,5.218225851422176e-8
2,5, 1, 5, 0, 7, 0.00,60.00,Monday
4973,-0.909415577702012
4826,1512298.4469004963
4827,4.701519173977431e-8
2,5, 1, 5, 0, 8, 0.00,60.00,Monday
4973,-1.4111626820983825
4826,0.0
4827,0.0
2,5, 1, 5, 0, 9, 0.00,60.00,Monday
4973,-1.68614509165223
4826,0.0
4827,0.0
2,5, 1, 5, 0,10, 0.00,60.00,Monday
4973,-1.7065417551546343
4826,0.0
4827,0.0
2,5, 1, 5, 0,11, 0.00,60.00,Monday
4973,-1.717083907358397
4826,0.0
4827,0.0
2,5, 1, 5, 0,12, 0.00,60.00,Monday
4973,-1.7248522030268133
4826,0.0
4827,0.0
2,5, 1, 5, 0,13, 0.00,60.00,Monday
4973,-1.7279019591531598
4826,0.0
4827,0.0
2,5, 1, 5, 0,14, 0.00,60.00,Monday
4973,-1.723889022248926
4826,0.0
4827,0.0
2,5, 1, 5, 0,15, 0.00,60.00,Monday
4973,-1.7179676978513437
4826,0.0
4827,0.0
2,5, 1, 5, 0,16, 0.00,60.00,Monday
4973,-1.7106315213557553
4826,0.0
4827,0.0
2,5, 1, 5, 0,17, 0.00,60.00,Monday
4973,-1.7080225944021844
4826,0.0
4827,0.0
2,5, 1, 5, 0,18, 0.00,60.00,Monday
4973,-1.7073401428009044
4826,0.0
4827,0.0
2,5, 1, 5, 0,19, 0.00,60.00,Monday
4973,-1.709585900911582
4826,0.0
4827,0.0
2,5, 1, 5, 0,20, 0.00,60.00,Monday
4973,-1.7027091095362033
4826,0.0
4827,0.0
2,5, 1, 5, 0,21, 0.00,60.00,Monday
4973,-1.7174570219966464
4826,0.0
4827,0.0
2,5, 1, 5, 0,22, 0.00,60.00,Monday
4973,-1.1925563305667253
4826,2576574.822948563
4827,7.439894034177996e-8
2,5, 1, 5, 0,23, 0.00,60.00,Monday
4973,-1.009332824125533
4826,1761163.72397796
4827,3.657874003692996e-8
2,5, 1, 5, 0,24, 0.00,60.00,Monday
4973,-0.9977995971940274
4826,1653966.6954520483
4827,5.668425728799775e-8
2,6, 1, 6, 0, 1, 0.00,60.00,Tuesday
4973,-0.9891098393655354
4826,1842808.0704301808
4827,5.392509457724373
2,6, 1, 6, 0, 2, 0.00,60.00,Tuesday
4973,-0.981977149680967
4826,1843104.2658208758
4827,6.220943760126829e-8
2,6, 1, 6, 0, 3, 0.00,60.00,Tuesday
4973,-0.9744015968189139
4826,1801619.0216273727
4827,2.3277380023500883e-8
2,6, 1, 6, 0, 4, 0.00,60.00,Tuesday
4973,-0.967193179135058
4826,1773013.7848333358
4827,1.3147882782504894e-8
2,6, 1, 6, 0, 5, 0.00,60.00,Tuesday
4973,-0.9605503065339286
4826,1761005.925868292
4827,6.650680006714538e-8
2,6, 1, 6, 0, 6, 0.00,60.00,Tuesday
4973,-0.9543800761147812
4826,1745416.573213303
4827,5.197762220632285e-8
2,6, 1, 6, 0, 7, 0.00,60.00,Tuesday
4973,-0.9492465854475488
4826,1731640.5139369355
4827,8.359393177670427e-8
2,6, 1, 6, 0, 8, 0.00,60.00,Tuesday
4973,-1.4515767229239785
4826,0.0
4827,0.0
2,6, 1, 6, 0, 9, 0.00,60.00,Tuesday
4973,-1.7373045286730098
4826,0.0
4827,0.0
2,6, 1, 6, 0,10, 0.00,60.00,Tuesday
4973,-1.7373706154769968
4826,0.0
4827,0.0
2,6, 1, 6, 0,11, 0.00,60.00,Tuesday
4973,-1.7208275226085026
4826,0.0
4827,0.0
2,6, 1, 6, 0,12, 0.00,60.00,Tuesday
4973,-1.6997821565162062
4826,0.0
4827,0.0
2,6, 1, 6, 0,13, 0.00,60.00,Tuesday
4973,-1.6652070564911848
4826,0.0
4827,0.0
2,6, 1, 6, 0,14, 0.00,60.00,Tuesday
4973,-1.5746058865226947
4826,0.0
4827,0.0
2,6, 1, 6, 0,15, 0.00,60.00,Tuesday
4973,-1.533376319239439
4826,0.0
4827,0.0
2,6, 1, 6, 0,16, 0.00,60.00,Tuesday
4973,-1.4957372916360008
4826,0.0
4827,0.0
2,6, 1, 6, 0,17, 0.00,60.00,Tuesday
4973,-1.4622670711230082
4826,0.0
4827,0.0
2,6, 1, 6, 0,18, 0.00,60.00,Tuesday
4973,-1.4592975279357537
4826,0.0
4827,0.0
2,6, 1, 6, 0,19, 0.00,60.00,Tuesday
4973,-1.4960689882171528
4826,0.0
4827,0.0
2,6, 1, 6, 0,20, 0.00,60.00,Tuesday
4973,-1.5267865304122724
4826,0.0
4827,0.0
2,6, 1, 6, 0,21, 0.00,60.00,Tuesday
4973,-1.5610420183421428
4826,0.0
4827,0.0
2,6, 1, 6, 0,22, 0.00,60.00,Tuesday
4973,-1.1102694432805187
4826,2228902.8249127895
4827,7.618950803589542e-8
2,6, 1, 6, 0,23, 0.00,60.00,Tuesday
4973,-0.9533115111680216
4826,1561145.8194548598
4827,3.990408004028723e-9
2,6, 1, 6, 0,24, 0.00,60.00,Tuesday
4973,-0.9442585109999817
4826,1472263.7659658378
4827,5.8832938520936298e-8
2,7, 1, 7, 0, 1, 0.00,60.00,Wednesday
4973,-0.9406385265679511
4826,1675518.1027766388
4827,2.9403314069246076e-8
2,7, 1, 7, 0, 2, 0.00,60.00,Wednesday
4973,-0.9391403109444385
4826,1696854.5753721602
4827,1.7752199710230344e-8
2,7, 1, 7, 0, 3, 0.00,60.00,Wednesday
4973,-0.9397371533466719
4826,1732053.1313096537
4827,7.945004654175136e-8
2,7, 1, 7, 0, 4, 0.00,60.00,Wednesday
4973,-0.9421292627728417
4826,1783442.3983446048
4827,8.062670531217009e-8
2,7, 1, 7, 0, 5, 0.00,60.00,Wednesday
4973,-0.9465707382390617
4826,1849977.7972189063
4827,4.9828940973384309e-8
2,7, 1, 7, 0, 6, 0.00,60.00,Wednesday
4973,-0.9527111021240917
4826,1913911.0506463182
4827,5.8628302213037389e-8
2,7, 1, 7, 0, 7, 0.00,60.00,Wednesday
4973,-0.958868488460642
4826,1966094.7860374214
4827,3.560671757441014e-8
2,7, 1, 7, 0, 8, 0.00,60.00,Wednesday
4973,-1.5847996215859528
4826,0.0
4827,0.0
2,7, 1, 7, 0, 9, 0.00,60.00,Wednesday
4973,-1.9182600499214915
4826,0.0
4827,0.0
2,7, 1, 7, 0,10, 0.00,60.00,Wednesday
4973,-1.9426790709150217
4826,0.0
4827,0.0
2,7, 1, 7, 0,11, 0.00,60.00,Wednesday
4973,-1.943061859630914
4826,0.0
4827,0.0
2,7, 1, 7, 0,12, 0.00,60.00,Wednesday
4973,-1.9194332586175947
4826,0.0
4827,0.0
2,7, 1, 7, 0,13, 0.00,60.00,Wednesday
4973,-1.8533213602974195
4826,0.0
4827,0.0
2,7, 1, 7, 0,14, 0.00,60.00,Wednesday
4973,-1.7416874992513488
4826,0.0
4827,0.0
2,7, 1, 7, 0,15, 0.00,60.00,Wednesday
4973,-1.6397280653112474
4826,0.0
4827,0.0
2,7, 1, 7, 0,16, 0.00,60.00,Wednesday
4973,-1.4687545292229345
4826,0.0
4827,0.0
2,7, 1, 7, 0,17, 0.00,60.00,Wednesday
4973,-1.402121168718598
4826,0.0
4827,0.0
2,7, 1, 7, 0,18, 0.00,60.00,Wednesday
4973,-1.4146915436508323
4826,0.0
4827,0.0
2,7, 1, 7, 0,19, 0.00,60.00,Wednesday
4973,-1.461525652293316
4826,0.0
4827,0.0
2,7, 1, 7, 0,20, 0.00,60.00,Wednesday
4973,-1.4941684980210868
4826,0.0
4827,0.0
2,7, 1, 7, 0,21, 0.00,60.00,Wednesday
4973,-1.5223334311171575
4826,0.0
4827,0.0
2,7, 1, 7, 0,22, 0.00,60.00,Wednesday
4973,-1.1066855347800063
4826,2045611.8664546193
4827,5.0226276471221357e-8
2,7, 1, 7, 0,23, 0.00,60.00,Wednesday
4973,-0.9639731159450878
4826,1450927.885256949
4827,7.827338777133264e-9
2,7, 1, 7, 0,24, 0.00,60.00,Wednesday
4973,-0.9551919061256053
4826,1372345.345021829
4827,7.213429853436537e-9
2,8, 1, 8, 0, 1, 0.00,60.00,Thursday
4973,-0.9511253453037545
4826,1581694.7466654455
4827,4.2576126751165639e-8
2,8, 1, 8, 0, 2, 0.00,60.00,Thursday
4973,-0.9474350929582609
4826,1596254.1129027794
4827,4.645244189305231e-8
2,8, 1, 8, 0, 3, 0.00,60.00,Thursday
4973,-0.944256524282072
4826,1623841.9521662037
4827,2.552837941038888e-8
2,8, 1, 8, 0, 4, 0.00,60.00,Thursday
4973,-0.9417070449647775
4826,1648360.261166911
4827,2.3379698177450338e-8
2,8, 1, 8, 0, 5, 0.00,60.00,Thursday
4973,-0.9395947134089947
4826,1661904.7204352457
4827,8.374740900762845e-8
2,8, 1, 8, 0, 6, 0.00,60.00,Thursday
4973,-0.937328827683616
4826,1674072.687777926
4827,4.6350123739102858e-8
2,8, 1, 8, 0, 7, 0.00,60.00,Thursday
4973,-0.935947454667994
4826,1676566.5756372095
4827,2.3430857254425065e-8
2,8, 1, 8, 0, 8, 0.00,60.00,Thursday
4973,-1.4348933822555184
4826,0.0
4827,0.0
2,8, 1, 8, 0, 9, 0.00,60.00,Thursday
4973,-1.7192332119576964
4826,0.0
4827,0.0
2,8, 1, 8, 0,10, 0.00,60.00,Thursday
4973,-1.725346986371422
4826,0.0
4827,0.0
2,8, 1, 8, 0,11, 0.00,60.00,Thursday
4973,-1.7149251783606148
4826,0.0
4827,0.0
2,8, 1, 8, 0,12, 0.00,60.00,Thursday
4973,-1.6928665295176338
4826,0.0
4827,0.0
2,8, 1, 8, 0,13, 0.00,60.00,Thursday
4973,-1.6612134182810699
4826,0.0
4827,0.0
2,8, 1, 8, 0,14, 0.00,60.00,Thursday
4973,-1.620764424917761
4826,0.0
4827,0.0
2,8, 1, 8, 0,15, 0.00,60.00,Thursday
4973,-1.5816236030502553
4826,0.0
4827,0.0
2,8, 1, 8, 0,16, 0.00,60.00,Thursday
4973,-1.5475913950526073
4826,0.0
4827,0.0
2,8, 1, 8, 0,17, 0.00,60.00,Thursday
4973,-1.516732950521884
4826,0.0
4827,0.0
2,8, 1, 8, 0,18, 0.00,60.00,Thursday
4973,-1.532322444315919
4826,0.0
4827,0.0
2,8, 1, 8, 0,19, 0.00,60.00,Thursday
4973,-1.5626037415431485
4826,0.0
4827,0.0
2,8, 1, 8, 0,20, 0.00,60.00,Thursday
4973,-1.5818966355150613
4826,0.0
4827,0.0
2,8, 1, 8, 0,21, 0.00,60.00,Thursday
4973,-1.5979450887652438
4826,0.0
4827,0.0
2,8, 1, 8, 0,22, 0.00,60.00,Thursday
4973,-1.1268621970871522
4826,2204955.688357929
4827,6.638401828240603e-8
2,8, 1, 8, 0,23, 0.00,60.00,Thursday
4973,-0.9632294544439378
4826,1495413.5899482419
4827,3.0746605261811058e-8
2,8, 1, 8, 0,24, 0.00,60.00,Thursday
4973,-0.9494115704504609
4826,1413334.685620504
4827,3.7346126191550869e-8
2,9, 1, 9, 0, 1, 0.00,60.00,Friday
4973,-0.9437934568717951
4826,1634910.9041412585
4827,5.253355084278155e-8
2,9, 1, 9, 0, 2, 0.00,60.00,Friday
4973,-0.9416791768409507
4826,1666532.7991057577
4827,4.353637450549286e-8
2,9, 1, 9, 0, 3, 0.00,60.00,Friday
4973,-0.9403765830338575
4826,1677334.2670608529
4827,7.080416253302246e-8
2,9, 1, 9, 0, 4, 0.00,60.00,Friday
4973,-0.9381380345265782
4826,1670627.1154778503
4827,4.4508396968012678e-8
2,9, 1, 9, 0, 5, 0.00,60.00,Friday
4973,-0.9350127912131043
4826,1662223.5440497965
4827,2.900719664467033e-8
2,9, 1, 9, 0, 6, 0.00,60.00,Friday
4973,-0.9318279449396646
4826,1656368.4334316806
4827,2.476099325576797e-8
2,9, 1, 9, 0, 7, 0.00,60.00,Friday
4973,-0.9295872816678283
4826,1651029.8816944916
4827,4.742446435557213e-8
2,9, 1, 9, 0, 8, 0.00,60.00,Friday
4973,-1.419123228474744
4826,0.0
4827,0.0
2,9, 1, 9, 0, 9, 0.00,60.00,Friday
4973,-1.7073466167887382
4826,0.0
4827,0.0
2,9, 1, 9, 0,10, 0.00,60.00,Friday
4973,-1.73123793724588
4826,0.0
4827,0.0
2,9, 1, 9, 0,11, 0.00,60.00,Friday
4973,-1.7348261765001348
4826,0.0
4827,0.0
2,9, 1, 9, 0,12, 0.00,60.00,Friday
4973,-1.7332248078085715
4826,0.0
4827,0.0
2,9, 1, 9, 0,13, 0.00,60.00,Friday
4973,-1.7310335911200344
4826,0.0
4827,0.0
2,9, 1, 9, 0,14, 0.00,60.00,Friday
4973,-1.7238451189228157
4826,0.0
4827,0.0
2,9, 1, 9, 0,15, 0.00,60.00,Friday
4973,-1.7207633241214975
4826,0.0
4827,0.0
2,9, 1, 9, 0,16, 0.00,60.00,Friday
4973,-1.7177151710507466
4826,0.0
4827,0.0
2,9, 1, 9, 0,17, 0.00,60.00,Friday
4973,-1.7214989051575392
4826,0.0
4827,0.0
2,9, 1, 9, 0,18, 0.00,60.00,Friday
4973,-1.7315297109156323
4826,0.0
4827,0.0
2,9, 1, 9, 0,19, 0.00,60.00,Friday
4973,-1.7391173202006086
4826,0.0
4827,0.0
2,9, 1, 9, 0,20, 0.00,60.00,Friday
4973,-1.73097561737981
4826,0.0
4827,0.0
2,9, 1, 9, 0,21, 0.00,60.00,Friday
4973,-1.7305874351356186
4826,0.0
4827,0.0
2,9, 1, 9, 0,22, 0.00,60.00,Friday
4973,-1.1917685492057502
4826,2588013.1318002247
4827,1.924263415276073e-8
2,9, 1, 9, 0,23, 0.00,60.00,Friday
4973,-1.0091413930560936
4826,1755379.8589930174
4827,3.217905941710342e-8
2,9, 1, 9, 0,24, 0.00,60.00,Friday
4973,-0.9961071073236939
4826,1621615.6652508237
4827,5.0238213589182126e-8
2,10, 1,10, 0, 1, 0.00,60.00,Saturday
4973,-0.9887495829851548
4826,1782533.6527223606
4827,1.916335479527577
2,10, 1,10, 0, 2, 0.00,60.00,Saturday
4973,-0.9830906749173862
4826,1761360.699691671
4827,0.0
2,10, 1,10, 0, 3, 0.00,60.00,Saturday
4973,-0.9780554591584624
4826,1728905.2020962677
4827,3.6067149267182688e-8
2,10, 1,10, 0, 4, 0.00,60.00,Saturday
4973,-0.9731662484769491
4826,1705657.202376008
4827,2.532374310248997e-8
2,10, 1,10, 0, 5, 0.00,60.00,Saturday
4973,-0.9680981585520396
4826,1692487.5596982467
4827,4.2871306504821408e-8
2,10, 1,10, 0, 6, 0.00,60.00,Saturday
4973,-0.963464841530738
4826,1686397.7254291522
4827,5.729816621169448e-8
2,10, 1,10, 0, 7, 0.00,60.00,Saturday
4973,-0.9597226312791838
4826,1679691.7517989996
4827,1.3864109860151075e-8
2,10, 1,10, 0, 8, 0.00,60.00,Saturday
4973,-0.956890500044129
4826,1666556.2907229874
4827,4.0325289774045817e-8
2,10, 1,10, 0, 9, 0.00,60.00,Saturday
4973,-0.954523897404845
4826,1717530.8381819693
4827,5.484253051690757e-8
2,10, 1,10, 0,10, 0.00,60.00,Saturday
4973,-0.9519951924554211
4826,1690284.0258846617
4827,9.310952009400353e-9
2,10, 1,10, 0,11, 0.00,60.00,Saturday
4973,-0.9495936564019143
4826,1697645.19803441
4827,1.6217427400988528e-8
2,10, 1,10, 0,12, 0.00,60.00,Saturday
4973,-0.9466345703962082
4826,1630083.810735467
4827,7.16227077646181e-9
2,10, 1,10, 0,13, 0.00,60.00,Saturday
4973,-0.9390068717828876
4826,1529617.4396016219
4827,4.757794158649631e-8
2,10, 1,10, 0,14, 0.00,60.00,Saturday
4973,-0.937588207867339
4826,1455648.2691595494
4827,3.949480742448941e-8
2,10, 1,10, 0,15, 0.00,60.00,Saturday
4973,-0.9301241865406589
4826,1306121.2007611113
4827,0.0
2,10, 1,10, 0,16, 0.00,60.00,Saturday
4973,-0.9144669885561643
4826,1214059.0448933254
4827,3.893205757776741e-8
2,10, 1,10, 0,17, 0.00,60.00,Saturday
4973,-0.8960626483386676
4826,1230801.0016113278
4827,6.502318683487829e-8
2,10, 1,10, 0,18, 0.00,60.00,Saturday
4973,-0.8707966577373821
4826,1166699.8840184136
4827,3.7346126191550869e-8
2,10, 1,10, 0,19, 0.00,60.00,Saturday
4973,-0.8795661018123862
4826,1257852.0154617213
4827,3.473701326583978e-8
2,10, 1,10, 0,20, 0.00,60.00,Saturday
4973,-0.8825657119501289
4826,1196491.6799704824
4827,4.476419235288631e-8
2,10, 1,10, 0,21, 0.00,60.00,Saturday
4973,-0.8833300747401168
4826,1183878.4518333316
4827,3.5350922189536507e-8
2,10, 1,10, 0,22, 0.00,60.00,Saturday
4973,-0.879575684144888
4826,1176591.3962859172
4827,5.2438053899095397e-8
2,10, 1,10, 0,23, 0.00,60.00,Saturday
4973,-0.8735370085590879
4826,1180447.8476223257
4827,1.192006493511144e-8
2,10, 1,10, 0,24, 0.00,60.00,Saturday
4973,-0.8679130586933357
4826,1162313.7081097074
4827,6.036771083017811e-8
2,11, 1,11, 0, 1, 0.00,60.00,Sunday
4973,-0.8693238778452492
4826,1366078.8899098542
4827,3.60886685614657e-8
2,11, 1,11, 0, 2, 0.00,60.00,Sunday
4973,-0.8749084683220121
4826,1433662.9381969963
4827,3.2230218494078146e-9
2,11, 1,11, 0, 3, 0.00,60.00,Sunday
4973,-0.8819124512661005
4826,1470252.1608838486
4827,6.584173206647393e-8
2,11, 1,11, 0, 4, 0.00,60.00,Sunday
4973,-0.8859740453721259
4826,1485163.9727093
4827,3.156515049340669e-8
2,11, 1,11, 0, 5, 0.00,60.00,Sunday
4973,-0.8876446167742348
4826,1501793.454141765
4827,3.76019215764245e-8
2,11, 1,11, 0, 6, 0.00,60.00,Sunday
4973,-0.8901167027911231
4826,1523150.6519494344
4827,3.801119419222232e-8
2,11, 1,11, 0, 7, 0.00,60.00,Sunday
4973,-0.8934518381839849
4826,1541552.6844365949
4827,6.538130037370138e-8
2,11, 1,11, 0, 8, 0.00,60.00,Sunday
4973,-0.8953497620320419
4826,1527710.1403344032
4827,5.338961273082532e-8
2,11, 1,11, 0, 9, 0.00,60.00,Sunday
4973,-0.8946184214481409
4826,1510127.7911837467
4827,3.125819603155833e-8
2,11, 1,11, 0,10, 0.00,60.00,Sunday
4973,-0.8897552627956777
4826,1434312.2173596153
4827,4.3024783735745589e-8
2,11, 1,11, 0,11, 0.00,60.00,Sunday
4973,-0.8830947624263787
4826,1434770.7622823127
4827,5.013589543523267e-9
2,11, 1,11, 0,12, 0.00,60.00,Sunday
4973,-0.8775880594594299
4826,1395247.7591264928
4827,3.64764218829805e-8
2,11, 1,11, 0,13, 0.00,60.00,Sunday
4973,-0.8736217727785696
4826,1363073.2066424983
4827,1.3608314475277439e-8
2,11, 1,11, 0,14, 0.00,60.00,Sunday
4973,-0.8703130657127248
4826,1342038.8886495417
4827,2.6142288334085607e-8
2,11, 1,11, 0,15, 0.00,60.00,Sunday
4973,-0.8673655786731311
4826,1253753.8117980366
4827,1.6575540939811618e-8
2,11, 1,11, 0,16, 0.00,60.00,Sunday
4973,-0.8640347103821306
4826,1225640.9494435008
4827,5.341007636161521e-8
2,11, 1,11, 0,17, 0.00,60.00,Sunday
4973,-0.8626424848016058
4826,1267065.5875398347
4827,2.5835333872237244e-8
2,11, 1,11, 0,18, 0.00,60.00,Sunday
4973,-0.8627554715381771
4826,1259446.3559415218
4827,3.23325366480276e-8
2,11, 1,11, 0,19, 0.00,60.00,Sunday
4973,-0.8610566818009263
4826,1239927.4681526786
4827,2.568185664131306e-8
2,11, 1,11, 0,20, 0.00,60.00,Sunday
4973,-0.8589703238140967
4826,1101934.1651128326
4827,1.800799509510398e-8
2,11, 1,11, 0,21, 0.00,60.00,Sunday
4973,-0.8566683278336279
4826,1046867.0743735782
4827,2.7421265258453788e-8
2,11, 1,11, 0,22, 0.00,60.00,Sunday
4973,-0.8542343999288495
4826,1030865.009020339
4827,2.8956037567695604e-8
2,11, 1,11, 0,23, 0.00,60.00,Sunday
4973,-0.8536941663151799
4826,1020689.6163770962
4827,3.340687726449687e-8
2,11, 1,11, 0,24, 0.00,60.00,Sunday
4973,-0.8534473051321847
4826,961593.1619444415
4827,5.341007636161521e-8
2,12, 1,12, 0, 1, 0.00,60.00,Monday
4973,-0.8549108415820528
4826,1105992.4915530827
4827,3.8394887269532776e-8
2,12, 1,12, 0, 2, 0.00,60.00,Monday
4973,-0.8565402169400592
4826,1119130.9628491586
4827,4.368985173641704e-8
2,12, 1,12, 0, 3, 0.00,60.00,Monday
4973,-0.8586891786968989
4826,1151481.6187002308
4827,5.842366590513848e-8
2,12, 1,12, 0, 4, 0.00,60.00,Monday
4973,-0.8603839983485122
4826,1181260.525138229
4827,5.0033577281283217e-8
2,12, 1,12, 0, 5, 0.00,60.00,Monday
4973,-0.8605788865247022
4826,1208903.0876701475
4827,1.5347723092418165e-8
2,12, 1,12, 0, 6, 0.00,60.00,Monday
4973,-0.8592292862579478
4826,1234616.4823988709
4827,4.466187419893686e-8
2,12, 1,12, 0, 7, 0.00,60.00,Monday
4973,-0.8567760077648066
4826,1252494.0313210968
4827,2.5477220333414153e-8
2,12, 1,12, 0, 8, 0.00,60.00,Monday
4973,-1.296223565454625
4826,0.0
4827,0.0
2,12, 1,12, 0, 9, 0.00,60.00,Monday
4973,-1.532051620497314
4826,0.0
4827,0.0
2,12, 1,12, 0,10, 0.00,60.00,Monday
4973,-1.5353958959490704
4826,0.0
4827,0.0
2,12, 1,12, 0,11, 0.00,60.00,Monday
4973,-1.5370524820856245
4826,0.0
4827,0.0
2,12, 1,12, 0,12, 0.00,60.00,Monday
4973,-1.5429353210765116
4826,0.0
4827,0.0
2,12, 1,12, 0,13, 0.00,60.00,Monday
4973,-1.5457409984284374
4826,0.0
4827,0.0
2,12, 1,12, 0,14, 0.00,60.00,Monday
4973,-1.5516010163509282
4826,0.0
4827,0.0
2,12, 1,12, 0,15, 0.00,60.00,Monday
4973,-1.5506639384286938
4826,0.0
4827,0.0
2,12, 1,12, 0,16, 0.00,60.00,Monday
4973,-1.5431200726112416
4826,0.0
4827,0.0
2,12, 1,12, 0,17, 0.00,60.00,Monday
4973,-1.533293547534897
4826,0.0
4827,0.0
2,12, 1,12, 0,18, 0.00,60.00,Monday
4973,-1.5250033893078803
4826,0.0
4827,0.0
2,12, 1,12, 0,19, 0.00,60.00,Monday
4973,-1.5247891054269174
4826,0.0
4827,0.0
2,12, 1,12, 0,20, 0.00,60.00,Monday
4973,-1.5199414757718413
4826,0.0
4827,0.0
2,12, 1,12, 0,21, 0.00,60.00,Monday
4973,-1.524061135559427
4826,0.0
4827,0.0
2,12, 1,12, 0,22, 0.00,60.00,Monday
4973,-1.078447199779444
4826,2001997.552413182
4827,4.9000163926393728e-8
2,12, 1,12, 0,23, 0.00,60.00,Monday
4973,-0.927762083244956
4826,1326997.5388450116
4827,3.908553480869159e-8
2,12, 1,12, 0,24, 0.00,60.00,Monday
4973,-0.9171173813948946
4826,1217100.3904006929
4827,6.047002898412757e-8
2,13, 1,13, 0, 1, 0.00,60.00,Tuesday
4973,-0.9107807013903537
4826,1395894.6207130373
4827,4.310377715568209
2,13, 1,13, 0, 2, 0.00,60.00,Tuesday
4973,-0.9053802574435381
4826,1387668.6817939736
4827,3.6783376344828869e-8
2,13, 1,13, 0, 3, 0.00,60.00,Tuesday
4973,-0.900712556800751
4826,1382167.8564073176
4827,2.2151880330056885e-8
2,13, 1,13, 0, 4, 0.00,60.00,Tuesday
4973,-0.8965593384399964
4826,1377185.8319892553
4827,1.8212631403002889e-8
2,13, 1,13, 0, 5, 0.00,60.00,Tuesday
4973,-0.8926008517154812
4826,1376957.0245006376
4827,1.8110313249053435e-8
2,13, 1,13, 0, 6, 0.00,60.00,Tuesday
4973,-0.8887705236675526
4826,1380921.818079337
4827,4.333173819759395e-8
2,13, 1,13, 0, 7, 0.00,60.00,Tuesday
4973,-0.8861515260255085
4826,1382791.600341225
4827,1.432454155292362e-9