Program Version,EnergyPlus, Version 8.7.0-78a111df4a, YMD=2019.08.06 22:49
1,5,Environment Title[],Latitude[deg],Longitude[deg],Time Zone[],Elevation[m]
2,6,Day of Simulation[],Month[],Day of Month[],DST Indicator[1=yes 0=no],Hour[],StartMinute[],EndMinute[],DayType
3,3,Cumulative Day of Simulation[],Month[],Day of Month[],DST Indicator[1=yes 0=no],DayType  ! When Daily Report Variables Requested
4,2,Cumulative Days of Simulation[],Month[]  ! When Monthly Report Variables Requested
5,1,Cumulative Days of Simulation[] ! When Run Period Report Variables Requested
5408,1,3F-B-BED2,Zone Air Temperature [C] !Hourly
7437,1,3F-B-BED2 IDEAL LOADS AIR SYSTEM,Zone Ideal Loads Zone Total Heating Energy [J] !Hourly
7438,1,3F-B-BED2 IDEAL LOADS AIR SYSTEM,Zone Ideal Loads Zone Total Cooling Energy [J] !Hourly
7592,1,3F-B-BED2 BEDROOM-B,Zone Thermal Comfort Fanger Model PMV [] !Hourly
End of Data Dictionary
1,ANNUAL,  29.58, 106.47,   8.00, 259.10
2,1, 1, 1, 0, 1, 0.00,60.00,Sunday
7592,-0.9966578854287859
5408,17.999999999999998
7437,724483.4764147806
7438,0.0
2,1, 1, 1, 0, 2, 0.00,60.00,Sunday
7592,-0.9840206592783082
5408,18.000000000000019
7437,743557.8536351104
7438,0.0
2,1, 1, 1, 0, 3, 0.00,60.00,Sunday
7592,-0.9773981875149134
5408,17.999999999999984
7437,745672.5119821137
7438,0.0
2,1, 1, 1, 0, 4, 0.00,60.00,Sunday
7592,-0.974833457544372
5408,18.00000000000002
7437,764202.9020159228
7438,0.0
2,1, 1, 1, 0, 5, 0.00,60.00,Sunday
7592,-0.9746974923872022
5408,18.000000000000005
7437,803805.4841107258
7438,0.0
2,1, 1, 1, 0, 6, 0.00,60.00,Sunday
7592,-0.9759146963537879
5408,17.999999999999984
7437,848486.9335674383
7438,0.0
2,1, 1, 1, 0, 7, 0.00,60.00,Sunday
7592,-0.9781990659082768
5408,18.000000000000005
7437,889014.092994509
7438,0.0
2,1, 1, 1, 0, 8, 0.00,60.00,Sunday
7592,-0.9803131580856671
5408,17.999999999999987
7437,918053.815471537
7438,0.0
2,1, 1, 1, 0, 9, 0.00,60.00,Sunday
7592,-1.2327817689989705
5408,15.8163686555964
7437,0.0
7438,0.0
2,1, 1, 1, 0,10, 0.00,60.00,Sunday
7592,-1.4511976119452186
5408,15.187852213996225
7437,0.0
7438,0.0
2,1, 1, 1, 0,11, 0.00,60.00,Sunday
7592,-1.4880903183051675
5408,15.19208836403548
7437,0.0
7438,0.0
2,1, 1, 1, 0,12, 0.00,60.00,Sunday
7592,-1.5011951673397837
5408,15.216384187066366
7437,0.0
7438,0.0
2,1, 1, 1, 0,13, 0.00,60.00,Sunday
7592,-1.3507398674732496
5408,16.71546501097761
7437,846432.9199922266
7438,0.0
2,1, 1, 1, 0,14, 0.00,60.00,Sunday
7592,-1.0440040145933985
5408,18.000000000067293
7437,829897.4514821402
7438,0.0
2,1, 1, 1, 0,15, 0.00,60.00,Sunday
7592,-1.2309831213330303
5408,16.074773271824076
7437,0.0
7438,0.0
2,1, 1, 1, 0,16, 0.00,60.00,Sunday
7592,-1.3837014291698698
5408,15.637058565851059
7437,0.0
7438,0.0
2,1, 1, 1, 0,17, 0.00,60.00,Sunday
7592,-1.3818261730312436
5408,15.74343207375851
7437,0.0
7438,0.0
2,1, 1, 1, 0,18, 0.00,60.00,Sunday
7592,-1.362067770944834
5408,15.847248710793297
7437,0.0
7438,0.0
2,1, 1, 1, 0,19, 0.00,60.00,Sunday
7592,-1.3434533907275553
5408,15.90266277577053
7437,0.0
7438,0.0
2,1, 1, 1, 0,20, 0.00,60.00,Sunday
7592,-1.335828276476818
5408,15.884267899155154
7437,0.0
7438,0.0
2,1, 1, 1, 0,21, 0.00,60.00,Sunday
7592,-1.3524060279310686
5408,15.774488434112565
7437,0.0
7438,0.0
2,1, 1, 1, 0,22, 0.00,60.00,Sunday
7592,-1.3861937436415293
5408,15.634804307300632
7437,0.0
7438,0.0
2,1, 1, 1, 0,23, 0.00,60.00,Sunday
7592,-1.0829465988887528
5408,18.108463044281085
7437,939319.2148418333
7438,0.0
2,1, 1, 1, 0,24, 0.00,60.00,Sunday
7592,-1.006836171172589
5408,18.0
7437,641251.8787516506
7438,0.0
2,2, 1, 2, 0, 1, 0.00,60.00,Monday
7592,-0.997507577702935
5408,18.00000000000002
7437,723935.6856382516
7438,0.0
2,2, 1, 2, 0, 2, 0.00,60.00,Monday
7592,-0.9920207381810045
5408,18.000000000000026
7437,752426.1118391302
7438,0.0
2,2, 1, 2, 0, 3, 0.00,60.00,Monday
7592,-0.989960172553546
5408,17.99999999999999
7437,767610.4471834274
7438,0.0
2,2, 1, 2, 0, 4, 0.00,60.00,Monday
7592,-0.9885900805981559
5408,18.000000000000026
7437,779877.665405408
7438,0.0
2,2, 1, 2, 0, 5, 0.00,60.00,Monday
7592,-0.9875678674078583
5408,18.00000000000003
7437,793459.2396198796
7438,0.0
2,2, 1, 2, 0, 6, 0.00,60.00,Monday
7592,-0.9867810715387719
5408,18.000000000000015
7437,809694.5296702636
7438,0.0
2,2, 1, 2, 0, 7, 0.00,60.00,Monday
7592,-0.986073986433154
5408,18.00000000000003
7437,821664.1218238078
7438,0.0
2,2, 1, 2, 0, 8, 0.00,60.00,Monday
7592,-0.9860279024024107
5408,18.000000000000026
7437,826889.302232103
7438,0.0
2,2, 1, 2, 0, 9, 0.00,60.00,Monday
7592,-1.2193748577065338
5408,15.963947726349334
7437,0.0
7438,0.0
2,2, 1, 2, 0,10, 0.00,60.00,Monday
7592,-1.4199123714994329
5408,15.378991290864877
7437,0.0
7438,0.0
2,2, 1, 2, 0,11, 0.00,60.00,Monday
7592,-1.4472716776091244
5408,15.399786526994218
7437,0.0
7438,0.0
2,2, 1, 2, 0,12, 0.00,60.00,Monday
7592,-1.4577297764772304
5408,15.42229568637935
7437,0.0
7438,0.0
2,2, 1, 2, 0,13, 0.00,60.00,Monday
7592,-1.3183678828022679
5408,16.820800047192038
7437,727744.6621326583
7438,0.0
2,2, 1, 2, 0,14, 0.00,60.00,Monday
7592,-1.0411595346708663
5408,18.00000001080644
7437,720582.3961506647
7438,0.0
2,2, 1, 2, 0,15, 0.00,60.00,Monday
7592,-1.2192527866920715
5408,16.182756788608328
7437,0.0
7438,0.0
2,2, 1, 2, 0,16, 0.00,60.00,Monday
7592,-1.374862663027491
5408,15.693028795911508
7437,0.0
7438,0.0
2,2, 1, 2, 0,17, 0.00,60.00,Monday
7592,-1.3916767163849402
5408,15.682060400371578
7437,0.0
7438,0.0
2,2, 1, 2, 0,18, 0.00,60.00,Monday
7592,-1.4077718145640719
5408,15.618320620765525
7437,0.0
7438,0.0
2,2, 1, 2, 0,19, 0.00,60.00,Monday
7592,-1.4290343412413982
5408,15.526255401482239
7437,0.0
7438,0.0
2,2, 1, 2, 0,20, 0.00,60.00,Monday
7592,-1.448173380034352
5408,15.445627905104649
7437,0.0
7438,0.0
2,2, 1, 2, 0,21, 0.00,60.00,Monday
7592,-1.4636889845433974
5408,15.38763333534998
7437,0.0
7438,0.0
2,2, 1, 2, 0,22, 0.00,60.00,Monday
7592,-1.4710391756659783
5408,15.363893188117516
7437,0.0
7438,0.0
2,2, 1, 2, 0,23, 0.00,60.00,Monday
7592,-1.1118663086705536
5408,18.10312036542798
7437,1125522.5887282964
7438,0.0
2,2, 1, 2, 0,24, 0.00,60.00,Monday
7592,-1.0092265626883624
5408,18.0
7437,747976.5980145868
7438,0.0
2,3, 1, 3, 0, 1, 0.00,60.00,Tuesday
7592,-0.9929898227586261
5408,18.000000000000005
7437,826396.4485862379
7438,0.0
2,3, 1, 3, 0, 2, 0.00,60.00,Tuesday
7592,-0.9857683929231446
5408,18.0
7437,872775.0026938154
7438,0.0
2,3, 1, 3, 0, 3, 0.00,60.00,Tuesday
7592,-0.9854707089735185
5408,17.999999999999994
7437,921082.3678764551
7438,0.0
2,3, 1, 3, 0, 4, 0.00,60.00,Tuesday
7592,-0.9865719518420049
5408,18.0
7437,953065.3995073432
7438,0.0
2,3, 1, 3, 0, 5, 0.00,60.00,Tuesday
7592,-0.9877308132329459
5408,18.000000000000015
7437,967378.0152223685
7438,0.0
2,3, 1, 3, 0, 6, 0.00,60.00,Tuesday
7592,-0.9887913811042083
5408,18.00000000000002
7437,969407.9570703796
7438,0.0
2,3, 1, 3, 0, 7, 0.00,60.00,Tuesday
7592,-0.9894505512493558
5408,17.999999999999998
7437,955145.2739028338
7438,0.0
2,3, 1, 3, 0, 8, 0.00,60.00,Tuesday
7592,-0.989507468603887
5408,18.00000000000001
7437,934960.5113428457
7438,0.0
2,3, 1, 3, 0, 9, 0.00,60.00,Tuesday
7592,-1.2388594175894537
5408,15.838973320954219
7437,0.0
7438,0.0
2,3, 1, 3, 0,10, 0.00,60.00,Tuesday
7592,-1.4596475555609388
5408,15.189656917423053
7437,0.0
7438,0.0
2,3, 1, 3, 0,11, 0.00,60.00,Tuesday
7592,-1.5032115031726783
5408,15.162260160479305
7437,0.0
7438,0.0
2,3, 1, 3, 0,12, 0.00,60.00,Tuesday
7592,-1.5261040329305234
5408,15.138408105745065
7437,0.0
7438,0.0
2,3, 1, 3, 0,13, 0.00,60.00,Tuesday
7592,-1.3806028775018063
5408,16.65436572972978
7437,933591.0342104132
7438,0.0
2,3, 1, 3, 0,14, 0.00,60.00,Tuesday
7592,-1.0602376858340182
5408,18.00000000031141
7437,1029949.1064826978
7438,0.0
2,3, 1, 3, 0,15, 0.00,60.00,Tuesday
7592,-1.2702887177778138
5408,15.840908252472275
7437,0.0
7438,0.0
2,3, 1, 3, 0,16, 0.00,60.00,Tuesday
7592,-1.4862489727919422
5408,15.14857889525436
7437,0.0
7438,0.0
2,3, 1, 3, 0,17, 0.00,60.00,Tuesday
7592,-1.523505169167718
5408,15.115408709822397
7437,0.0
7438,0.0
2,3, 1, 3, 0,18, 0.00,60.00,Tuesday
7592,-1.5417197985379066
5408,15.080294617713209
7437,0.0
7438,0.0
2,3, 1, 3, 0,19, 0.00,60.00,Tuesday
7592,-1.5485936562247984
5408,15.068423230517072
7437,0.0
7438,0.0
2,3, 1, 3, 0,20, 0.00,60.00,Tuesday
7592,-1.5491102325264886
5408,15.062958733358983
7437,0.0
7438,0.0
2,3, 1, 3, 0,21, 0.00,60.00,Tuesday
7592,-1.5488099868538548
5408,15.05392757608008
7437,0.0
7438,0.0
2,3, 1, 3, 0,22, 0.00,60.00,Tuesday
7592,-1.5477160978373419
5408,15.045760163739614
7437,0.0
7438,0.0
2,3, 1, 3, 0,23, 0.00,60.00,Tuesday
7592,-1.1436885585128403
5408,18.102174637792055
7437,1432689.7387159714
7438,0.0
2,3, 1, 3, 0,24, 0.00,60.00,Tuesday
7592,-1.020439989771288
5408,18.000000000000005
7437,954527.9599083713
7438,0.0
2,4, 1, 4, 0, 1, 0.00,60.00,Wednesday
7592,-0.9998322713320289
5408,18.00000000000002
7437,973277.6009910174
7438,0.0
2,4, 1, 4, 0, 2, 0.00,60.00,Wednesday
7592,-0.9906900769114987
5408,18.0
7437,962330.8605382893
7438,0.0
2,4, 1, 4, 0, 3, 0.00,60.00,Wednesday
7592,-0.9875048011781616
5408,18.00000000000003
7437,956867.199442711
7438,0.0
2,4, 1, 4, 0, 4, 0.00,60.00,Wednesday
7592,-0.9857350065256214
5408,18.000000000000044
7437,954480.4510315147
7438,0.0
2,4, 1, 4, 0, 5, 0.00,60.00,Wednesday
7592,-0.9840935246915604
5408,18.0
7437,949121.318857403
7438,0.0
2,4, 1, 4, 0, 6, 0.00,60.00,Wednesday
7592,-0.982529986793596
5408,18.000000000000015
7437,948189.6342437709
7438,0.0
2,4, 1, 4, 0, 7, 0.00,60.00,Wednesday
7592,-0.9812139390254768
5408,17.99999999999998
7437,947612.2875849165
7438,0.0
2,4, 1, 4, 0, 8, 0.00,60.00,Wednesday
7592,-0.9806726366195294
5408,18.000000000000015
7437,943639.9905380635
7438,0.0
2,4, 1, 4, 0, 9, 0.00,60.00,Wednesday
7592,-1.2314381611535795
5408,15.809177827429523
7437,0.0
7438,0.0
2,4, 1, 4, 0,10, 0.00,60.00,Wednesday
7592,-1.4588495643079978
5408,15.11765632626327
7437,0.0
7438,0.0
2,4, 1, 4, 0,11, 0.00,60.00,Wednesday
7592,-1.5041905382716526
5408,15.084500732612027
7437,0.0
7438,0.0
2,4, 1, 4, 0,12, 0.00,60.00,Wednesday
7592,-1.5308819641489989
5408,15.061714524734795
7437,0.0
7438,0.0
2,4, 1, 4, 0,13, 0.00,60.00,Wednesday
7592,-1.3834930414438518
5408,16.626557324692468
7437,945273.4215815507
7438,0.0
2,4, 1, 4, 0,14, 0.00,60.00,Wednesday
7592,-1.059565340650593
5408,18.000000000322328
7437,1045620.8985820727
7438,0.0
2,4, 1, 4, 0,15, 0.00,60.00,Wednesday
7592,-1.2725759870198213
5408,15.858489061985523
7437,0.0
7438,0.0
2,4, 1, 4, 0,16, 0.00,60.00,Wednesday
7592,-1.467830339299227
5408,15.266323119038665
7437,0.0
7438,0.0
2,4, 1, 4, 0,17, 0.00,60.00,Wednesday
7592,-1.4958703135063097
5408,15.246527001042948
7437,0.0
7438,0.0
2,4, 1, 4, 0,18, 0.00,60.00,Wednesday
7592,-1.5125529669562486
5408,15.197131046303794
7437,0.0
7438,0.0
2,4, 1, 4, 0,19, 0.00,60.00,Wednesday
7592,-1.5240122060127047
5408,15.145834438101377
7437,0.0
7438,0.0
2,4, 1, 4, 0,20, 0.00,60.00,Wednesday
7592,-1.5323398169871219
5408,15.095570857586959
7437,0.0
7438,0.0
2,4, 1, 4, 0,21, 0.00,60.00,Wednesday
7592,-1.5409178617171078
5408,15.05100447366828
7437,0.0
7438,0.0
2,4, 1, 4, 0,22, 0.00,60.00,Wednesday
7592,-1.5479017153652384
5408,15.020974267946502
7437,0.0
7438,0.0
2,4, 1, 4, 0,23, 0.00,60.00,Wednesday
7592,-1.1439958210955952
5408,18.104474279849268
7437,1448101.9102321896
7438,0.0
2,4, 1, 4, 0,24, 0.00,60.00,Wednesday
7592,-1.0241356101658868
5408,18.00000000000004
7437,970696.5938530736
7438,0.0
2,5, 1, 5, 0, 1, 0.00,60.00,Thursday
7592,-1.0051097932122062
5408,17.999999999999987
7437,981100.6713482308
7438,0.0
2,5, 1, 5, 0, 2, 0.00,60.00,Thursday
7592,-0.9978770489939395
5408,18.000000000000037
7437,959431.2468507121
7438,0.0
2,5, 1, 5, 0, 3, 0.00,60.00,Thursday
7592,-0.9966051062320788
5408,18.00000000000001
7437,951158.9554860798
7438,0.0
2,5, 1, 5, 0, 4, 0.00,60.00,Thursday
7592,-0.9978188107205757
5408,17.999999999999987
7437,955411.3512508939
7438,0.0
2,5, 1, 5, 0, 5, 0.00,60.00,Thursday
7592,-0.9998357443521626
5408,18.000000000000015
7437,964575.9048875419
7438,0.0
2,5, 1, 5, 0, 6, 0.00,60.00,Thursday
7592,-1.0013789130709837
5408,18.00000000000002
7437,975936.8544264638
7438,0.0
2,5, 1, 5, 0, 7, 0.00,60.00,Thursday
7592,-1.0026814301469443
5408,18.000000000000019
7437,988452.7156955237
7438,0.0
2,5, 1, 5, 0, 8, 0.00,60.00,Thursday
7592,-1.0043867950578885
5408,18.00000000000002
7437,996927.6861318831
7438,0.0
2,5, 1, 5, 0, 9, 0.00,60.00,Thursday
7592,-1.260663545670778
5408,15.775397345498464
7437,0.0
7438,0.0
2,5, 1, 5, 0,10, 0.00,60.00,Thursday
7592,-1.4941105309330006
5408,15.075117368991208
7437,0.0
7438,0.0
2,5, 1, 5, 0,11, 0.00,60.00,Thursday
7592,-1.5384820480076338
5408,15.046912304141479
7437,0.0
7438,0.0
2,5, 1, 5, 0,12, 0.00,60.00,Thursday
7592,-1.5611787766335724
5408,15.024376446498215
7437,0.0
7438,0.0
2,5, 1, 5, 0,13, 0.00,60.00,Thursday
7592,-1.4082168671267635
5408,16.60440420579838
7437,983472.629053215
7438,0.0
2,5, 1, 5, 0,14, 0.00,60.00,Thursday
7592,-1.0717569117478159
5408,18.00000000048178
7437,1107388.755714835
7438,0.0
2,5, 1, 5, 0,15, 0.00,60.00,Thursday
7592,-1.2892307162129844
5408,15.77657861765737
7437,0.0
7438,0.0
2,5, 1, 5, 0,16, 0.00,60.00,Thursday
7592,-1.4978849251876348
5408,15.13476381757591
7437,0.0
7438,0.0
2,5, 1, 5, 0,17, 0.00,60.00,Thursday
7592,-1.5339279451109669
5408,15.113591534126052
7437,0.0
7438,0.0
2,5, 1, 5, 0,18, 0.00,60.00,Thursday
7592,-1.548286476206101
5408,15.10706830332436
7437,0.0
7438,0.0
2,5, 1, 5, 0,19, 0.00,60.00,Thursday
7592,-1.5538425155114515
5408,15.110444601903433
7437,0.0
7438,0.0
2,5, 1, 5, 0,20, 0.00,60.00,Thursday
7592,-1.5564249555410488
5408,15.106154164718993
7437,0.0
7438,0.0
2,5, 1, 5, 0,21, 0.00,60.00,Thursday
7592,-1.562045853826711
5408,15.078355577184367
7437,0.0
7438,0.0
2,5, 1, 5, 0,22, 0.00,60.00,Thursday
7592,-1.5708669689333069
5408,15.036950562836595
7437,0.0
7438,0.0
2,5, 1, 5, 0,23, 0.00,60.00,Thursday
7592,-1.167759182154745
5408,18.106398999137395
7437,1487457.643323698
7438,0.0
2,5, 1, 5, 0,24, 0.00,60.00,Thursday
7592,-1.043936726544814
5408,18.00000000000003
7437,1021482.0399037352
7438,0.0
2,6, 1, 6, 0, 1, 0.00,60.00,Friday
7592,-1.0182008685433628
5408,17.99999999999997
7437,1046106.9431523746
7438,0.0
2,6, 1, 6, 0, 2, 0.00,60.00,Friday
7592,-1.0056319476292475
5408,18.000000000000015
7437,1038351.5672269997
7438,0.0
2,6, 1, 6, 0, 3, 0.00,60.00,Friday
7592,-0.9989353374098496
5408,18.000000000000005
7437,1026998.2635525118
7438,0.0
2,6, 1, 6, 0, 4, 0.00,60.00,Friday
7592,-0.9946275102114092
5408,18.000000000000026
7437,1019853.4032513241
7438,0.0
2,6, 1, 6, 0, 5, 0.00,60.00,Friday
7592,-0.9912586838359583
5408,17.999999999999994
7437,1012523.9656714276
7438,0.0
2,6, 1, 6, 0, 6, 0.00,60.00,Friday
7592,-0.9885662110617727
5408,18.0
7437,1002732.9772768649
7438,0.0
2,6, 1, 6, 0, 7, 0.00,60.00,Friday
7592,-0.9868566960834815
5408,18.0
7437,995940.9399628132
7438,0.0
2,6, 1, 6, 0, 8, 0.00,60.00,Friday
7592,-0.9870504786449024
5408,18.000000000000026
7437,991950.5401112896
7438,0.0
2,6, 1, 6, 0, 9, 0.00,60.00,Friday
7592,-1.2407295010880375
5408,15.789210336912446
7437,0.0
7438,0.0
2,6, 1, 6, 0,10, 0.00,60.00,Friday
7592,-1.4633570250950372
5408,15.14473197359339
7437,0.0
7438,0.0
2,6, 1, 6, 0,11, 0.00,60.00,Friday
7592,-1.4969746650323615
5408,15.18414575764514
7437,0.0
7438,0.0
2,6, 1, 6, 0,12, 0.00,60.00,Friday
7592,-1.5095236190837005
5408,15.23441396654948
7437,0.0
7438,0.0
2,6, 1, 6, 0,13, 0.00,60.00,Friday
7592,-1.3594462103114376
5408,16.756822091976674
7437,842557.8063726106
7438,0.0
2,6, 1, 6, 0,14, 0.00,60.00,Friday
7592,-1.0603558183017044
5408,18.00000009355136
7437,788829.4919237495
7438,0.0
2,6, 1, 6, 0,15, 0.00,60.00,Friday
7592,-1.2371006665804266
5408,16.220203939864704
7437,0.0
7438,0.0
2,6, 1, 6, 0,16, 0.00,60.00,Friday
7592,-1.3917191529665099
5408,15.751980903009996
7437,0.0
7438,0.0
2,6, 1, 6, 0,17, 0.00,60.00,Friday
7592,-1.4009302784071796
5408,15.778559951890636
7437,0.0
7438,0.0
2,6, 1, 6, 0,18, 0.00,60.00,Friday
7592,-1.3993997816597215
5408,15.775057606930645
7437,0.0
7438,0.0
2,6, 1, 6, 0,19, 0.00,60.00,Friday
7592,-1.4144231415776858
5408,15.668253075933747
7437,0.0
7438,0.0
2,6, 1, 6, 0,20, 0.00,60.00,Friday
7592,-1.4308954539387147
5408,15.561913621321582
7437,0.0
7438,0.0
2,6, 1, 6, 0,21, 0.00,60.00,Friday
7592,-1.4444251024718627
5408,15.473260109748944
7437,0.0
7438,0.0
2,6, 1, 6, 0,22, 0.00,60.00,Friday
7592,-1.456746639901592
5408,15.398388574180805
7437,0.0
7438,0.0
2,6, 1, 6, 0,23, 0.00,60.00,Friday
7592,-1.1067460245106915
5408,18.114259182781784
7437,1106334.640137292
7438,0.0
2,6, 1, 6, 0,24, 0.00,60.00,Friday
7592,-1.0100512739508956
5408,18.0
7437,756697.4009190374
7438,0.0
2,7, 1, 7, 0, 1, 0.00,60.00,Saturday
7592,-0.9933587793434354
5408,18.00000000000001
7437,811292.9718727229
7438,0.0
2,7, 1, 7, 0, 2, 0.00,60.00,Saturday
7592,-0.9850438551596731
5408,18.000000000000019
7437,831090.8856234889
7438,0.0
2,7, 1, 7, 0, 3, 0.00,60.00,Saturday
7592,-0.9827736115958556
5408,18.000000000000019
7437,865812.4924748371
7438,0.0
2,7, 1, 7, 0, 4, 0.00,60.00,Saturday
7592,-0.982610712370868
5408,18.000000000000015
7437,915341.8597747224
7438,0.0
2,7, 1, 7, 0, 5, 0.00,60.00,Saturday
7592,-0.9836433032358475
5408,17.99999999999998
7437,978094.2751982114
7438,0.0
2,7, 1, 7, 0, 6, 0.00,60.00,Saturday
7592,-0.9852638953410495
5408,17.999999999999984
7437,1039615.8254425589
7438,0.0
2,7, 1, 7, 0, 7, 0.00,60.00,Saturday
7592,-0.986997944912195
5408,18.000000000000026
7437,1090708.072821786
7438,0.0
2,7, 1, 7, 0, 8, 0.00,60.00,Saturday
7592,-0.9885708268721644
5408,18.000000000000008
7437,1122466.1393642396
7438,0.0
2,7, 1, 7, 0, 9, 0.00,60.00,Saturday
7592,-1.2666739276886408
5408,15.599835588328097
7437,0.0
7438,0.0
2,7, 1, 7, 0,10, 0.00,60.00,Saturday
7592,-1.508215529221097
5408,14.925096788404276
7437,0.0
7438,0.0
2,7, 1, 7, 0,11, 0.00,60.00,Saturday
7592,-1.5489772822555086
5408,14.95669060194615
7437,0.0
7438,0.0
2,7, 1, 7, 0,12, 0.00,60.00,Saturday
7592,-1.55994152836681
5408,15.032332966787564
7437,0.0
7438,0.0
2,7, 1, 7, 0,13, 0.00,60.00,Saturday
7592,-1.3941767185231309
5408,16.660322762169434
7437,892868.2623430186
7438,0.0
2,7, 1, 7, 0,14, 0.00,60.00,Saturday
7592,-1.0714220417191032
5408,18.00000001768504
7437,835590.1693906633
7438,0.0
2,7, 1, 7, 0,15, 0.00,60.00,Saturday
7592,-1.2391276476503444
5408,16.227705819002506
7437,0.0
7438,0.0
2,7, 1, 7, 0,16, 0.00,60.00,Saturday
7592,-1.3400061786198228
5408,16.065147349734404
7437,0.0
7438,0.0
2,7, 1, 7, 0,17, 0.00,60.00,Saturday
7592,-1.3276384991132293
5408,16.145601404035998
7437,0.0
7438,0.0
2,7, 1, 7, 0,18, 0.00,60.00,Saturday
7592,-1.3278419958038204
5408,16.147068946879185
7437,0.0
7438,0.0
2,7, 1, 7, 0,19, 0.00,60.00,Saturday
7592,-1.3492948072540896
5408,16.031971412635117
7437,0.0
7438,0.0
2,7, 1, 7, 0,20, 0.00,60.00,Saturday
7592,-1.3692459234259858
5408,15.928933301048757
7437,0.0
7438,0.0
2,7, 1, 7, 0,21, 0.00,60.00,Saturday
7592,-1.3849975143408955
5408,15.835773608188744
7437,0.0
7438,0.0
2,7, 1, 7, 0,22, 0.00,60.00,Saturday
7592,-1.3997196201961296
5408,15.750513692644466
7437,0.0
7438,0.0
2,7, 1, 7, 0,23, 0.00,60.00,Saturday
7592,-1.094609679833298
5408,18.118407323951169
7437,889657.6650099193
7438,0.0
2,7, 1, 7, 0,24, 0.00,60.00,Saturday
7592,-1.0180824349312634
5408,18.000000000000008
7437,524339.044176983
7438,0.0
2,8, 1, 8, 0, 1, 0.00,60.00,Sunday
7592,-1.0052348967374203
5408,18.000000000000005
7437,602489.482894854
7438,0.0
2,8, 1, 8, 0, 2, 0.00,60.00,Sunday
7592,-0.9951614967931378
5408,18.0
7437,624422.1241345943
7438,0.0
2,8, 1, 8, 0, 3, 0.00,60.00,Sunday
7592,-0.9898422953264748
5408,18.000000000000019
7437,645811.5050884406
7438,0.0
2,8, 1, 8, 0, 4, 0.00,60.00,Sunday
7592,-0.9865793104063255
5408,18.000000000000005
7437,669731.88638568
7438,0.0
2,8, 1, 8, 0, 5, 0.00,60.00,Sunday
7592,-0.9842127473250161
5408,18.000000000000015
7437,691945.6681306764
7438,0.0
2,8, 1, 8, 0, 6, 0.00,60.00,Sunday
7592,-0.9821002580984747
5408,18.00000000000004
7437,712342.5751194265
7438,0.0
2,8, 1, 8, 0, 7, 0.00,60.00,Sunday
7592,-0.9811497782150882
5408,18.000000000000019
7437,725988.0840528238
7438,0.0
2,8, 1, 8, 0, 8, 0.00,60.00,Sunday
7592,-0.9810858564101271
5408,18.0
7437,734055.2470812739
7438,0.0
2,8, 1, 8, 0, 9, 0.00,60.00,Sunday
7592,-1.2120747621459037
5408,16.012438200466055
7437,0.0
7438,0.0
2,8, 1, 8, 0,10, 0.00,60.00,Sunday
7592,-1.3981674918226226
5408,15.477062498772107
7437,0.0
7438,0.0
2,8, 1, 8, 0,11, 0.00,60.00,Sunday
7592,-1.425358029671151
5408,15.51008959667553
7437,0.0
7438,0.0
2,8, 1, 8, 0,12, 0.00,60.00,Sunday
7592,-1.4301614755070087
5408,15.568001667509366
7437,0.0
7438,0.0
2,8, 1, 8, 0,13, 0.00,60.00,Sunday
7592,-1.2925332023374688
5408,16.919059309853286
7437,672098.5110823149
7438,0.0
2,8, 1, 8, 0,14, 0.00,60.00,Sunday
7592,-1.0396143805763052
5408,18.00000006467474
7437,533101.0258581891
7438,0.0
2,8, 1, 8, 0,15, 0.00,60.00,Sunday
7592,-1.1993838351223519
5408,16.39312186825762
7437,0.0
7438,0.0
2,8, 1, 8, 0,16, 0.00,60.00,Sunday
7592,-1.3314167172685439
5408,15.983472446624085
7437,0.0
7438,0.0
2,8, 1, 8, 0,17, 0.00,60.00,Sunday
7592,-1.3352774514334307
5408,16.047114285204289
7437,0.0
7438,0.0
2,8, 1, 8, 0,18, 0.00,60.00,Sunday
7592,-1.3495809068855012
5408,15.998893525237359
7437,0.0
7438,0.0
2,8, 1, 8, 0,19, 0.00,60.00,Sunday
7592,-1.3629398168246383
5408,15.924822546773149
7437,0.0
7438,0.0
2,8, 1, 8, 0,20, 0.00,60.00,Sunday
7592,-1.3747773320084956
5408,15.856639047592346
7437,0.0
7438,0.0
2,8, 1, 8, 0,21, 0.00,60.00,Sunday
7592,-1.3846717447005539
5408,15.801621921591604
7437,0.0
7438,0.0
2,8, 1, 8, 0,22, 0.00,60.00,Sunday
7592,-1.389422846832015
5408,15.76938869305283
7437,0.0
7438,0.0
2,8, 1, 8, 0,23, 0.00,60.00,Sunday
7592,-1.0816972834280548
5408,18.113209067843888
7437,828764.3817538418
7438,0.0
2,8, 1, 8, 0,24, 0.00,60.00,Sunday
7592,-1.0046945234326419
5408,18.000000000000005
7437,466083.863816317
7438,0.0
2,9, 1, 9, 0, 1, 0.00,60.00,Monday
7592,-0.9914704804965253
5408,18.00000000000001
7437,557865.2595489975
7438,0.0
2,9, 1, 9, 0, 2, 0.00,60.00,Monday
7592,-0.9828856463484738
5408,17.999999999999984
7437,598552.8578349784
7438,0.0
2,9, 1, 9, 0, 3, 0.00,60.00,Monday
7592,-0.9782259795645968
5408,18.00000000000001
7437,621168.8022809193
7438,0.0
2,9, 1, 9, 0, 4, 0.00,60.00,Monday
7592,-0.9756634869403875
5408,17.999999999999998
7437,628294.764747618
7438,0.0
2,9, 1, 9, 0, 5, 0.00,60.00,Monday
7592,-0.973944659092716
5408,18.000000000000026
7437,633811.510427513
7438,0.0
2,9, 1, 9, 0, 6, 0.00,60.00,Monday
7592,-0.9727363511084635
5408,17.999999999999998
7437,641728.8366590764
7438,0.0
2,9, 1, 9, 0, 7, 0.00,60.00,Monday
7592,-0.9724666149254957
5408,18.0
7437,649672.897319795
7438,0.0
2,9, 1, 9, 0, 8, 0.00,60.00,Monday
7592,-0.9731684537049773
5408,18.00000000000001
7437,656393.6557437191
7438,0.0
2,9, 1, 9, 0, 9, 0.00,60.00,Monday
7592,-1.196007130218249
5408,16.083868402893527
7437,0.0
7438,0.0
2,9, 1, 9, 0,10, 0.00,60.00,Monday
7592,-1.3782246974744513
5408,15.53713574859952
7437,0.0
7438,0.0
2,9, 1, 9, 0,11, 0.00,60.00,Monday
7592,-1.4127810414390008
5408,15.51320378946309
7437,0.0
7438,0.0
2,9, 1, 9, 0,12, 0.00,60.00,Monday
7592,-1.428458371096064
5408,15.504803993388542
7437,0.0
7438,0.0
2,9, 1, 9, 0,13, 0.00,60.00,Monday
7592,-1.2989415109661327
5408,16.847883813183228
7437,752816.0585645038
7438,0.0
2,9, 1, 9, 0,14, 0.00,60.00,Monday
7592,-1.028881438247451
5408,18.00000005236853
7437,686764.1799747192
7438,0.0
2,9, 1, 9, 0,15, 0.00,60.00,Monday
7592,-1.2157855967317133
5408,16.14415729780659
7437,0.0
7438,0.0
2,9, 1, 9, 0,16, 0.00,60.00,Monday
7592,-1.3844059092077424
5408,15.59807550966898
7437,0.0
7438,0.0
2,9, 1, 9, 0,17, 0.00,60.00,Monday
7592,-1.4143506589983073
5408,15.560420192815974
7437,0.0
7438,0.0
2,9, 1, 9, 0,18, 0.00,60.00,Monday
7592,-1.4300672236156487
5408,15.528825879453019
7437,0.0
7438,0.0
2,9, 1, 9, 0,19, 0.00,60.00,Monday
7592,-1.43710400855922
5408,15.517277245401159
7437,0.0
7438,0.0
2,9, 1, 9, 0,20, 0.00,60.00,Monday
7592,-1.4397874001970735
5408,15.507821474839992
7437,0.0
7438,0.0
2,9, 1, 9, 0,21, 0.00,60.00,Monday
7592,-1.443462431432187
5408,15.493129467898504
7437,0.0
7438,0.0
2,9, 1, 9, 0,22, 0.00,60.00,Monday
7592,-1.4469736130167606
5408,15.481012952541562
7437,0.0
7438,0.0
2,9, 1, 9, 0,23, 0.00,60.00,Monday
7592,-1.1060245282333566
5408,18.108886554032
7437,991441.4689385836
7438,0.0
2,9, 1, 9, 0,24, 0.00,60.00,Monday
7592,-1.0142959918836388
5408,18.0
7437,616349.3087720784
7438,0.0
2,10, 1,10, 0, 1, 0.00,60.00,Tuesday
7592,-0.9998539953755296
5408,17.999999999999998
7437,649254.9065519134
7438,0.0
2,10, 1,10, 0, 2, 0.00,60.00,Tuesday
7592,-0.9921654818791922
5408,18.000000000000005
7437,642072.520095853
7438,0.0
2,10, 1,10, 0, 3, 0.00,60.00,Tuesday
7592,-0.9890420068264932
5408,18.000000000000005
7437,637180.1241491828
7438,0.0
2,10, 1,10, 0, 4, 0.00,60.00,Tuesday
7592,-0.9872694455456706
5408,18.0
7437,636851.0707787097
7438,0.0
2,10, 1,10, 0, 5, 0.00,60.00,Tuesday
7592,-0.9855002569555761
5408,18.000000000000005
7437,638110.0556102059
7438,0.0
2,10, 1,10, 0, 6, 0.00,60.00,Tuesday
7592,-0.9839413285828976
5408,18.000000000000026
7437,645566.5905398944
7438,0.0
2,10, 1,10, 0, 7, 0.00,60.00,Tuesday
7592,-0.9828228468192064
5408,17.999999999999998
7437,652944.1551707346
7438,0.0
2,10, 1,10, 0, 8, 0.00,60.00,Tuesday
7592,-0.9826613155109026
5408,17.999999999999984
7437,654753.2923401356
7438,0.0
2,10, 1,10, 0, 9, 0.00,60.00,Tuesday
7592,-1.2021892485198247
5408,16.096784002391279
7437,0.0
7438,0.0
2,10, 1,10, 0,10, 0.00,60.00,Tuesday
7592,-1.3865042687194958
5408,15.531628773919414
7437,0.0
7438,0.0
2,10, 1,10, 0,11, 0.00,60.00,Tuesday
7592,-1.4228350196941289
5408,15.509308578388043
7437,0.0
7438,0.0
2,10, 1,10, 0,12, 0.00,60.00,Tuesday
7592,-1.4390140066878364
5408,15.522778383684824
7437,0.0
7438,0.0
2,10, 1,10, 0,13, 0.00,60.00,Tuesday
7592,-1.3072647021092692
5408,16.882478620080549
7437,713663.1077034217
7438,0.0
2,10, 1,10, 0,14, 0.00,60.00,Tuesday
7592,-1.0460240399363706
5408,18.00000007105709
7437,607365.75865984
7438,0.0
2,10, 1,10, 0,15, 0.00,60.00,Tuesday
7592,-1.2080885272755786
5408,16.35924349124795
7437,0.0
7438,0.0
2,10, 1,10, 0,16, 0.00,60.00,Tuesday
7592,-1.340539288962977
5408,15.948435908736985
7437,0.0
7438,0.0
2,10, 1,10, 0,17, 0.00,60.00,Tuesday
7592,-1.341276593746512
5408,15.977558241524852
7437,0.0
7438,0.0
2,10, 1,10, 0,18, 0.00,60.00,Tuesday
7592,-1.3346198615154339
5408,15.987951842332175
7437,0.0
7438,0.0
2,10, 1,10, 0,19, 0.00,60.00,Tuesday
7592,-1.3598342949161809
5408,15.84676208954023
7437,0.0
7438,0.0
2,10, 1,10, 0,20, 0.00,60.00,Tuesday
7592,-1.382170623638131
5408,15.74052714729062
7437,0.0
7438,0.0
2,10, 1,10, 0,21, 0.00,60.00,Tuesday
7592,-1.3953414396809925
5408,15.677753146601198
7437,0.0
7438,0.0
2,10, 1,10, 0,22, 0.00,60.00,Tuesday
7592,-1.40004961208227
5408,15.654545433333979
7437,0.0
7438,0.0
2,10, 1,10, 0,23, 0.00,60.00,Tuesday
7592,-1.0780471044380542
5408,18.116755009892296
7437,898600.1981969711
7438,0.0
2,10, 1,10, 0,24, 0.00,60.00,Tuesday
7592,-0.9952607090815152
5408,18.000000000000005
7437,536674.0720188721
7438,0.0
2,11, 1,11, 0, 1, 0.00,60.00,Wednesday
7592,-0.9836254814389486
5408,18.0
7437,634444.395368933
7438,0.0
2,11, 1,11, 0, 2, 0.00,60.00,Wednesday
7592,-0.9790292580765606
5408,18.000000000000005
7437,689342.0330883408
7438,0.0
2,11, 1,11, 0, 3, 0.00,60.00,Wednesday
7592,-0.9787439914355337
5408,18.000000000000008
7437,722588.056115092
7438,0.0
2,11, 1,11, 0, 4, 0.00,60.00,Wednesday
7592,-0.9789095654473582
5408,17.99999999999999
7437,738905.0930242718
7438,0.0
2,11, 1,11, 0, 5, 0.00,60.00,Wednesday
7592,-0.9787461140995241
5408,18.000000000000026
7437,756213.4863560363
7438,0.0
2,11, 1,11, 0, 6, 0.00,60.00,Wednesday
7592,-0.9797328169414139
5408,18.000000000000015
7437,779092.6322447935
7438,0.0
2,11, 1,11, 0, 7, 0.00,60.00,Wednesday
7592,-0.9814002716427629
5408,18.000000000000005
7437,801713.7749118811
7438,0.0
2,11, 1,11, 0, 8, 0.00,60.00,Wednesday
7592,-0.9826921526609981
5408,17.999999999999998
7437,800149.6375463958
7438,0.0
2,11, 1,11, 0, 9, 0.00,60.00,Wednesday
7592,-1.2095238703520018
5408,16.025189042294515
7437,0.0
7438,0.0
2,11, 1,11, 0,10, 0.00,60.00,Wednesday
7592,-1.400511610497477
5408,15.418135299479842
7437,0.0
7438,0.0
2,11, 1,11, 0,11, 0.00,60.00,Wednesday
7592,-1.4339311977383032
5408,15.421832166655128
7437,0.0
7438,0.0
2,11, 1,11, 0,12, 0.00,60.00,Wednesday
7592,-1.447124565277598
5408,15.420320471069488
7437,0.0
7438,0.0
2,11, 1,11, 0,13, 0.00,60.00,Wednesday
7592,-1.3123195183070887
5408,16.806097013337526
7437,733079.4556805566
7438,0.0
2,11, 1,11, 0,14, 0.00,60.00,Wednesday
7592,-1.0342432718953612
5408,18.000000009623375
7437,767761.6817684143
7438,0.0
2,11, 1,11, 0,15, 0.00,60.00,Wednesday
7592,-1.2277886304994024
5408,16.054624948573758
7437,0.0
7438,0.0
2,11, 1,11, 0,16, 0.00,60.00,Wednesday
7592,-1.405827202879913
5408,15.480888752929005
7437,0.0
7438,0.0
2,11, 1,11, 0,17, 0.00,60.00,Wednesday
7592,-1.4370342371237526
5408,15.447282066723118
7437,0.0
7438,0.0
2,11, 1,11, 0,18, 0.00,60.00,Wednesday
7592,-1.4517027910892384
5408,15.423551605798004
7437,0.0
7438,0.0
2,11, 1,11, 0,19, 0.00,60.00,Wednesday
7592,-1.457234188207894
5408,15.420093652365893
7437,0.0
7438,0.0
2,11, 1,11, 0,20, 0.00,60.00,Wednesday
7592,-1.4584241964443017
5408,15.428716666276357
7437,0.0
7438,0.0
2,11, 1,11, 0,21, 0.00,60.00,Wednesday
7592,-1.4580562634763113
5408,15.437017397162917
7437,0.0
7438,0.0
2,11, 1,11, 0,22, 0.00,60.00,Wednesday
7592,-1.4582318198580995
5408,15.442248621305481
7437,0.0
7438,0.0
2,11, 1,11, 0,23, 0.00,60.00,Wednesday
7592,-1.111947131379331
5408,18.112758663058157
7437,1014937.050549598
7438,0.0
2,11, 1,11, 0,24, 0.00,60.00,Wednesday
7592,-1.0201160387354967
5408,18.00000000000001
7437,639511.0575457818
7438,0.0
2,12, 1,12, 0, 1, 0.00,60.00,Thursday
7592,-1.007350877196493
5408,18.0
7437,673771.8836772239
7438,0.0
2,12, 1,12, 0, 2, 0.00,60.00,Thursday
7592,-1.002042005171846
5408,17.99999999999999
7437,673030.2556542994
7438,0.0
2,12, 1,12, 0, 3, 0.00,60.00,Thursday