Program Version,EnergyPlus, Version 8.7.0-78a111df4a, YMD=2019.06.21 03:08
1,5,Environment Title[],Latitude[deg],Longitude[deg],Time Zone[],Elevation[m]
2,6,Day of Simulation[],Month[],Day of Month[],DST Indicator[1=yes 0=no],Hour[],StartMinute[],EndMinute[],DayType
3,3,Cumulative Day of Simulation[],Month[],Day of Month[],DST Indicator[1=yes 0=no],DayType  ! When Daily Report Variables Requested
4,2,Cumulative Days of Simulation[],Month[]  ! When Monthly Report Variables Requested
5,1,Cumulative Days of Simulation[] ! When Run Period Report Variables Requested
1929,1,THERMAL ZONE: SPACE 201,Zone Air Temperature [C] !Hourly
2695,1,THERMAL ZONE: SPACE 201 PEOPLE,Zone Thermal Comfort Fanger Model PMV [] !Hourly
3063,1,THERMAL ZONE: SPACE 305 PTHP,Zone Packaged Terminal Heat Pump Total Heating Energy [J] !Hourly
3064,1,THERMAL ZONE: SPACE 305 PTHP,Zone Packaged Terminal Heat Pump Total Cooling Energy [J] !Hourly
End of Data Dictionary
1,ANN HTG 99.6% CONDNS DB,  29.58, 106.47,   8.00, 259.10
2,1, 1,21, 0, 1, 0.00,60.00,WinterDesignDay
2695,-6.4939281201643939
1929,18.000065902623388
3063,4651591.942782597
3064,0.0
2,1, 1,21, 0, 2, 0.00,60.00,WinterDesignDay
2695,-6.49784231059079
1929,18.000049819354769
3063,4670650.569356697
3064,0.0
2,1, 1,21, 0, 3, 0.00,60.00,WinterDesignDay
2695,-6.501106578681903
1929,18.000035782177198
3063,4690439.005287689
3064,0.0
2,1, 1,21, 0, 4, 0.00,60.00,WinterDesignDay
2695,-6.503968627198629
1929,18.000030336275079
3063,4708170.628498102
3064,0.0
2,1, 1,21, 0, 5, 0.00,60.00,WinterDesignDay
2695,-6.506687569795379
1929,18.00002391875686
3063,4728354.827114112
3064,0.0
2,1, 1,21, 0, 6, 0.00,60.00,WinterDesignDay
2695,-6.50894168051745
1929,17.999995930736178
3063,4758667.890390969
3064,0.0
2,1, 1,21, 0, 7, 0.00,60.00,WinterDesignDay
2695,-5.6775442695309838
1929,17.99992752935327
3063,4797728.5449683419
3064,0.0
2,1, 1,21, 0, 8, 0.00,60.00,WinterDesignDay
2695,-5.67465189596363
1929,17.999833483164779
3063,5184153.399050903
3064,0.0
2,1, 1,21, 0, 9, 0.00,60.00,WinterDesignDay
2695,-5.319478457762217
1929,18.00009899528256
3063,6309153.936480351
3064,0.0
2,1, 1,21, 0,10, 0.00,60.00,WinterDesignDay
2695,-5.300659497058458
1929,18.00070598131587
3063,7303273.847907434
3064,0.0
2,1, 1,21, 0,11, 0.00,60.00,WinterDesignDay
2695,-5.288771724885862
1929,18.000900055390525
3063,7019932.172031648
3064,0.0
2,1, 1,21, 0,12, 0.00,60.00,WinterDesignDay
2695,-5.2810219800544309
1929,18.00092714244759
3063,6833456.854173315
3064,0.0
2,1, 1,21, 0,13, 0.00,60.00,WinterDesignDay
2695,-5.276790393149834
1929,18.000841267167318
3063,6364617.458763226
3064,0.0
2,1, 1,21, 0,14, 0.00,60.00,WinterDesignDay
2695,-5.27317688811649
1929,18.00081741328107
3063,6291435.284353992
3064,0.0
2,1, 1,21, 0,15, 0.00,60.00,WinterDesignDay
2695,-5.26853792533844
1929,18.000962778999438
3063,6554419.266492535
3064,0.0
2,1, 1,21, 0,16, 0.00,60.00,WinterDesignDay
2695,-5.266703987422938
1929,18.001090005063955
3063,6541826.6466497289
3064,0.0
2,1, 1,21, 0,17, 0.00,60.00,WinterDesignDay
2695,-5.267976087490309
1929,18.001148467915905
3063,6599141.195901552
3064,0.0
2,1, 1,21, 0,18, 0.00,60.00,WinterDesignDay
2695,-5.270335649626201
1929,18.00119497930746
3063,6686154.829511669
3064,0.0
2,1, 1,21, 0,19, 0.00,60.00,WinterDesignDay
2695,-5.615554750715522
1929,18.000683349218286
3063,5221271.5606292509
3064,0.0
2,1, 1,21, 0,20, 0.00,60.00,WinterDesignDay
2695,-5.631123896474523
1929,18.000359407888806
3063,5397769.997186485
3064,0.0
2,1, 1,21, 0,21, 0.00,60.00,WinterDesignDay
2695,-5.641437696428359
1929,18.000188998217014
3063,4568514.707506453
3064,0.0
2,1, 1,21, 0,22, 0.00,60.00,WinterDesignDay
2695,-5.649454028062224
1929,18.000115337130166
3063,4612380.228139332
3064,0.0
2,1, 1,21, 0,23, 0.00,60.00,WinterDesignDay
2695,-5.65510204301377
1929,18.00008772065496
3063,4633145.587304796
3064,0.0
2,1, 1,21, 0,24, 0.00,60.00,WinterDesignDay
2695,-5.659692597247555
1929,18.0000752911232
3063,4646790.350298956
3064,0.0
1,ANN CLG 4% CONDNS DB =>MWB,  29.58, 106.47,   8.00, 259.10
2,1, 7,21, 0, 1, 0.00,60.00,SummerDesignDay
2695,-3.1531323237990436
1929,25.99975979897044
3063,0.0
3064,880349.6984471816
2,1, 7,21, 0, 2, 0.00,60.00,SummerDesignDay
2695,-3.1633782731407265
1929,25.99983109177896
3063,0.0
3064,847894.3692927156
2,1, 7,21, 0, 3, 0.00,60.00,SummerDesignDay
2695,-3.171319880087283
1929,25.999879999080418
3063,0.0
3064,820759.3446416527
2,1, 7,21, 0, 4, 0.00,60.00,SummerDesignDay
2695,-3.177786352651674
1929,25.999910605107237
3063,0.0
3064,797385.8228572782
2,1, 7,21, 0, 5, 0.00,60.00,SummerDesignDay
2695,-3.183375447359122
1929,25.999932116729185
3063,0.0
3064,775176.0953931557
2,1, 7,21, 0, 6, 0.00,60.00,SummerDesignDay
2695,-3.1882281031494239
1929,25.99996123167521
3063,0.0
3064,749831.9850840709
2,1, 7,21, 0, 7, 0.00,60.00,SummerDesignDay
2695,-3.8915281715766105
1929,25.99999660853371
3063,0.0
3064,719735.1867181489
2,1, 7,21, 0, 8, 0.00,60.00,SummerDesignDay
2695,-3.8685729246030138
1929,25.999681762329954
3063,0.0
3064,1124648.6815012377
2,1, 7,21, 0, 9, 0.00,60.00,SummerDesignDay
2695,-3.810408714040799
1929,25.99690782181256
3063,0.0
3064,3786688.9061460115
2,1, 7,21, 0,10, 0.00,60.00,SummerDesignDay
2695,-3.659965484275631
1929,26.581133317363386
3063,0.0
3064,6869532.416464811
2,1, 7,21, 0,11, 0.00,60.00,SummerDesignDay
2695,-3.546934927232456
1929,26.984627649416067
3063,0.0
3064,6972647.181257354
2,1, 7,21, 0,12, 0.00,60.00,SummerDesignDay
2695,-3.4769453832509744
1929,27.286078221431969
3063,0.0
3064,6913280.129841538
2,1, 7,21, 0,13, 0.00,60.00,SummerDesignDay
2695,-3.5137531751220254
1929,26.963700983424777
3063,0.0
3064,6568453.8574268859
2,1, 7,21, 0,14, 0.00,60.00,SummerDesignDay
2695,-3.5202702635519858
1929,27.019393176208884
3063,0.0
3064,6329358.501383085
2,1, 7,21, 0,15, 0.00,60.00,SummerDesignDay
2695,-3.410215482273534
1929,27.62872497039282
3063,0.0
3064,6660071.091213291
2,1, 7,21, 0,16, 0.00,60.00,SummerDesignDay
2695,-3.3647251052835158
1929,27.67509418674182
3063,0.0
3064,6920075.557301529
2,1, 7,21, 0,17, 0.00,60.00,SummerDesignDay
2695,-3.3803314009025735
1929,27.552294493908165
3063,0.0
3064,7013252.631683244
2,1, 7,21, 0,18, 0.00,60.00,SummerDesignDay
2695,-3.40727564594695
1929,27.377785244194926
3063,0.0
3064,7108301.437945672
2,1, 7,21, 0,19, 0.00,60.00,SummerDesignDay
2695,-3.5812364141570875
1929,26.04749955570568
3063,0.0
3064,4159099.534073555
2,1, 7,21, 0,20, 0.00,60.00,SummerDesignDay
2695,-3.6914231183572037
1929,25.997020851880167
3063,0.0
3064,3389860.7598586578
2,1, 7,21, 0,21, 0.00,60.00,SummerDesignDay
2695,-3.7255033743489158
1929,25.998585621008187
3063,0.0
3064,1360420.9536463568
2,1, 7,21, 0,22, 0.00,60.00,SummerDesignDay
2695,-3.7775628627740724
1929,25.999173188280169
3063,0.0
3064,1133036.3799582574
2,1, 7,21, 0,23, 0.00,60.00,SummerDesignDay
2695,-3.8088979441774906
1929,25.999475896678534
3063,0.0
3064,1018493.2913242669
2,1, 7,21, 0,24, 0.00,60.00,SummerDesignDay
2695,-3.829440577838793
1929,25.99966029267642
3063,0.0
3064,948495.5127052362
1,RUN PERIOD 1,  29.58, 106.47,   8.00, 259.10
2,1, 1, 1, 0, 1, 0.00,60.00,Holiday
2695,-6.120251486862846
1929,18.000205126861017
3063,1716493.0719421935
3064,0.0
2,1, 1, 1, 0, 2, 0.00,60.00,Holiday
2695,-6.123488337493286
1929,18.000078713151347
3063,1744152.09279308
3064,0.0
2,1, 1, 1, 0, 3, 0.00,60.00,Holiday
2695,-6.1250797995593519
1929,18.00005482163063
3063,1748223.1212729605
3064,0.0
2,1, 1, 1, 0, 4, 0.00,60.00,Holiday
2695,-6.126855831373583
1929,18.0000741154052
3063,1746950.772042688
3064,0.0
2,1, 1, 1, 0, 5, 0.00,60.00,Holiday
2695,-6.12999764480615
1929,18.000128709209343
3063,1741399.3574776487
3064,0.0
2,1, 1, 1, 0, 6, 0.00,60.00,Holiday
2695,-6.136825888388951
1929,18.000165213478345
3063,1681221.9404793748
3064,0.0
2,1, 1, 1, 0, 7, 0.00,60.00,Holiday
2695,-6.543294168147404
1929,18.000123998701928
3063,1728090.7672141428
3064,0.0
2,1, 1, 1, 0, 8, 0.00,60.00,Holiday
2695,-6.552353505227784
1929,18.000079623597697
3063,1788041.8976068409
3064,0.0
2,1, 1, 1, 0, 9, 0.00,60.00,Holiday
2695,-6.057678348152418
1929,18.00003984794165
3063,1847155.0817131722
3064,0.0
2,1, 1, 1, 0,10, 0.00,60.00,Holiday
2695,-6.060403731069136
1929,18.00000877693282
3063,1910566.9078855266
3064,0.0
2,1, 1, 1, 0,11, 0.00,60.00,Holiday
2695,-6.061234091452008
1929,18.0000055528328
3063,1953024.5396523588
3064,0.0
2,1, 1, 1, 0,12, 0.00,60.00,Holiday
2695,-6.061817567659273
1929,18.0000022898324
3063,1974283.7585835788
3064,0.0
2,1, 1, 1, 0,13, 0.00,60.00,Holiday
2695,-6.062511208557016
1929,18.000000683263118
3063,2016381.044769494
3064,0.0
2,1, 1, 1, 0,14, 0.00,60.00,Holiday
2695,-6.06119146408174
1929,18.000000566196264
3063,2056168.2169996557
3064,0.0
2,1, 1, 1, 0,15, 0.00,60.00,Holiday
2695,-6.057524941480665
1929,18.000000456275339
3063,2080777.6552154618
3064,0.0
2,1, 1, 1, 0,16, 0.00,60.00,Holiday
2695,-6.05136837705389
1929,18.000000355515259
3063,2092642.0951823344
3064,0.0
2,1, 1, 1, 0,17, 0.00,60.00,Holiday
2695,-6.042649105419223
1929,18.000000277669824
3063,2089176.7722920674
3064,0.0
2,1, 1, 1, 0,18, 0.00,60.00,Holiday
2695,-6.031806648273066
1929,18.000000229249755
3063,2064201.6175277462
3064,0.0
2,1, 1, 1, 0,19, 0.00,60.00,Holiday
2695,-6.514087052434675
1929,18.000000203432685
3063,2015137.6187000033
3064,0.0
2,1, 1, 1, 0,20, 0.00,60.00,Holiday
2695,-6.50154715905371
1929,18.000000207434519
3063,1925524.109872253
3064,0.0
2,1, 1, 1, 0,21, 0.00,60.00,Holiday
2695,-6.494627950557786
1929,18.000054378008668
3063,1812263.3206515746
3064,0.0
2,1, 1, 1, 0,22, 0.00,60.00,Holiday
2695,-6.495123461172984
1929,18.000288654624855
3063,1727004.7402123353
3064,0.0
2,1, 1, 1, 0,23, 0.00,60.00,Holiday
2695,-6.500797851695636
1929,18.000382577979598
3063,1688841.2774129583
3064,0.0
2,1, 1, 1, 0,24, 0.00,60.00,Holiday
2695,-6.508449025040598
1929,18.000373867002346
3063,1679679.8342008044
3064,0.0
2,2, 1, 2, 0, 1, 0.00,60.00,Holiday
2695,-6.515611414169279
1929,18.00034026233025
3063,1679976.1442345037
3064,0.0
2,2, 1, 2, 0, 2, 0.00,60.00,Holiday
2695,-6.522763073160816
1929,18.00027780474564
3063,1693875.1790809702
3064,0.0
2,2, 1, 2, 0, 3, 0.00,60.00,Holiday
2695,-6.529221628870605
1929,18.000200753396645
3063,1716681.2506657593
3064,0.0
2,2, 1, 2, 0, 4, 0.00,60.00,Holiday
2695,-6.534233951143309
1929,18.000141163376129
3063,1738860.6733286947
3064,0.0
2,2, 1, 2, 0, 5, 0.00,60.00,Holiday
2695,-6.538274812177
1929,18.000101549251459
3063,1760814.7830162314
3064,0.0
2,2, 1, 2, 0, 6, 0.00,60.00,Holiday
2695,-6.541767445002634
1929,18.00007538420212
3063,1784530.9188026346
3064,0.0
2,2, 1, 2, 0, 7, 0.00,60.00,Holiday
2695,-6.645420401305759
1929,18.000064881447107
3063,1808057.435186536
3064,0.0
2,2, 1, 2, 0, 8, 0.00,60.00,Holiday
2695,-6.648650651446164
1929,18.000049984382107
3063,1837034.6765056814
3064,0.0
2,2, 1, 2, 0, 9, 0.00,60.00,Holiday
2695,-6.133603843213142
1929,18.00000443515157
3063,1886830.0410824575
3064,0.0
2,2, 1, 2, 0,10, 0.00,60.00,Holiday
2695,-6.133692020795543
1929,18.00000054308866
3063,1940769.4404873262
3064,0.0
2,2, 1, 2, 0,11, 0.00,60.00,Holiday
2695,-6.132200989251149
1929,18.000000483355753
3063,1964478.1848823552
3064,0.0
2,2, 1, 2, 0,12, 0.00,60.00,Holiday
2695,-6.131111762939486
1929,18.000000440324326
3063,1983053.9960514589
3064,0.0
2,2, 1, 2, 0,13, 0.00,60.00,Holiday
2695,-6.130124600213667
1929,18.00000040622015
3063,1999899.3647529993
3064,0.0
2,2, 1, 2, 0,14, 0.00,60.00,Holiday
2695,-6.128933206869974
1929,18.000000368365563
3063,2013081.7581278198
3064,0.0
2,2, 1, 2, 0,15, 0.00,60.00,Holiday
2695,-6.12657523090295
1929,18.00000031983952
3063,2028597.3415938307
3064,0.0
2,2, 1, 2, 0,16, 0.00,60.00,Holiday
2695,-6.121870828455402
1929,18.00000027520337
3063,2031946.4714978743
3064,0.0
2,2, 1, 2, 0,17, 0.00,60.00,Holiday
2695,-6.115345664331605
1929,18.000000261457904
3063,1985268.9726322997
3064,0.0
2,2, 1, 2, 0,18, 0.00,60.00,Holiday
2695,-6.109991433204293
1929,18.000000277153565
3063,1909750.437536257
3064,0.0
2,2, 1, 2, 0,19, 0.00,60.00,Holiday
2695,-6.6194267037210159
1929,18.000023591676177
3063,1842099.692463713
3064,0.0
2,2, 1, 2, 0,20, 0.00,60.00,Holiday
2695,-6.617671311835161
1929,18.00009372114986
3063,1786446.2305070502
3064,0.0
2,2, 1, 2, 0,21, 0.00,60.00,Holiday
2695,-6.617503288908838
1929,18.000091033771097
3063,1757082.684252623
3064,0.0
2,2, 1, 2, 0,22, 0.00,60.00,Holiday
2695,-6.6172091851190129
1929,18.00002078495704
3063,1754639.268908625
3064,0.0
2,2, 1, 2, 0,23, 0.00,60.00,Holiday
2695,-6.6158090937374249
1929,18.000000383249568
3063,1748663.025889545
3064,0.0
2,2, 1, 2, 0,24, 0.00,60.00,Holiday
2695,-6.614955225589976
1929,18.00004260843728
3063,1724388.3394407198
3064,0.0
2,3, 1, 3, 0, 1, 0.00,60.00,Holiday
2695,-6.616861619357567
1929,18.000113679981135
3063,1706996.050864587
3064,0.0
2,3, 1, 3, 0, 2, 0.00,60.00,Holiday
2695,-6.6211243793658769
1929,18.000205891006769
3063,1686934.8569786237
3064,0.0
2,3, 1, 3, 0, 3, 0.00,60.00,Holiday
2695,-6.6288565637271
1929,18.000246281997489
3063,1640255.3017463999
3064,0.0
2,3, 1, 3, 0, 4, 0.00,60.00,Holiday
2695,-6.642100315420862
1929,18.00015910336177
3063,1680032.1857627528
3064,0.0
2,3, 1, 3, 0, 5, 0.00,60.00,Holiday
2695,-6.6516577197214
1929,18.000082192192325
3063,1755732.340682541
3064,0.0
2,3, 1, 3, 0, 6, 0.00,60.00,Holiday
2695,-6.65720594670212
1929,18.0000403434785
3063,1806954.3306753394
3064,0.0
2,3, 1, 3, 0, 7, 0.00,60.00,Holiday
2695,-6.5625012250230239
1929,18.00000748202384
3063,1875704.1287929363
3064,0.0
2,3, 1, 3, 0, 8, 0.00,60.00,Holiday
2695,-6.562889714269289
1929,18.000003617502725
3063,1899990.0529482018
3064,0.0
2,3, 1, 3, 0, 9, 0.00,60.00,Holiday
2695,-6.062333719595137
1929,18.000000718351417
3063,1931471.3993457917
3064,0.0
2,3, 1, 3, 0,10, 0.00,60.00,Holiday
2695,-6.063036904449472
1929,18.00000067290323
3063,1965213.3778633774
3064,0.0
2,3, 1, 3, 0,11, 0.00,60.00,Holiday
2695,-6.063941518484582
1929,18.000000638508696
3063,2000134.4609535593
3064,0.0
2,3, 1, 3, 0,12, 0.00,60.00,Holiday
2695,-6.06479971757388
1929,18.00000060675815
3063,2032022.570802418
3064,0.0
2,3, 1, 3, 0,13, 0.00,60.00,Holiday
2695,-6.065920337139691
1929,18.00000058455215
3063,2062337.145494904
3064,0.0
2,3, 1, 3, 0,14, 0.00,60.00,Holiday
2695,-6.067069953715499
1929,18.000000568315398
3063,2092687.5492161886
3064,0.0
2,3, 1, 3, 0,15, 0.00,60.00,Holiday
2695,-6.068063670501922
1929,18.000000558970148
3063,2122518.3027764249
3064,0.0
2,3, 1, 3, 0,16, 0.00,60.00,Holiday
2695,-6.068662862925533
1929,18.000000554097935
3063,2148958.940646211
3064,0.0
2,3, 1, 3, 0,17, 0.00,60.00,Holiday
2695,-6.068757765004833
1929,18.000000548330516
3063,2177214.05398024
3064,0.0
2,3, 1, 3, 0,18, 0.00,60.00,Holiday
2695,-6.0679973658533579
1929,18.000000548656787
3063,2197809.5714701388
3064,0.0
2,3, 1, 3, 0,19, 0.00,60.00,Holiday
2695,-6.570196428917889
1929,18.00000054641678
3063,2214501.4463655
3064,0.0
2,3, 1, 3, 0,20, 0.00,60.00,Holiday
2695,-6.568038028370961
1929,18.000000552101694
3063,2227250.50840106
3064,0.0
2,3, 1, 3, 0,21, 0.00,60.00,Holiday
2695,-6.5655235864234069
1929,18.00000056075511
3063,2233283.6704724219
3064,0.0
2,3, 1, 3, 0,22, 0.00,60.00,Holiday
2695,-6.563204320748181
1929,18.00000057131831
3063,2233951.2660201147
3064,0.0
2,3, 1, 3, 0,23, 0.00,60.00,Holiday
2695,-6.561524323714189
1929,18.000000587536609
3063,2235751.359200033
3064,0.0
2,3, 1, 3, 0,24, 0.00,60.00,Holiday
2695,-6.560529275889544
1929,18.000000604238115
3063,2233357.2417247744
3064,0.0
2,4, 1, 4, 0, 1, 0.00,60.00,Wednesday
2695,-6.560537089434334
1929,18.00000062151456
3063,2239546.8447470765
3064,0.0
2,4, 1, 4, 0, 2, 0.00,60.00,Wednesday
2695,-6.560814163787961
1929,18.000002042497969
3063,2243731.4610195786
3064,0.0
2,4, 1, 4, 0, 3, 0.00,60.00,Wednesday
2695,-6.561614213005928
1929,18.000001489425267
3063,2253280.568151924
3064,0.0
2,4, 1, 4, 0, 4, 0.00,60.00,Wednesday
2695,-6.562268029216078
1929,18.000000676748678
3063,2266510.4374067087
3064,0.0
2,4, 1, 4, 0, 5, 0.00,60.00,Wednesday
2695,-6.5625496159553979
1929,18.00000068742021
3063,2282342.7750378858
3064,0.0
2,4, 1, 4, 0, 6, 0.00,60.00,Wednesday
2695,-6.562271381594289
1929,18.000000700761409
3063,2292839.519849634
3064,0.0
2,4, 1, 4, 0, 7, 0.00,60.00,Wednesday
2695,-6.6916279431000389
1929,18.00000071202579
3063,2298070.64857467
3064,0.0
2,4, 1, 4, 0, 8, 0.00,60.00,Wednesday
2695,-6.690037931278613
1929,18.000025521920667
3063,2294207.12513421
3064,0.0
2,4, 1, 4, 0, 9, 0.00,60.00,Wednesday
2695,-6.153204751650413
1929,18.000206449846375
3063,2203131.664895845
3064,0.0
2,4, 1, 4, 0,10, 0.00,60.00,Wednesday
2695,-6.135694893249384
1929,18.000421873643878
3063,2048303.9092764173
3064,0.0
2,4, 1, 4, 0,11, 0.00,60.00,Wednesday
2695,-6.1296693528246399
1929,18.000512452812644
3063,1960680.5694853124
3064,0.0
2,4, 1, 4, 0,12, 0.00,60.00,Wednesday
2695,-6.130584861359831
1929,18.000491689445036
3063,1900728.1569933573
3064,0.0
2,4, 1, 4, 0,13, 0.00,60.00,Wednesday
2695,-6.132370845316963
1929,18.000477547789484
3063,1865577.7266770637
3064,0.0
2,4, 1, 4, 0,14, 0.00,60.00,Wednesday
2695,-6.132945990767692
1929,18.000413309757165
3063,1780334.8804425977
3064,0.0
2,4, 1, 4, 0,15, 0.00,60.00,Wednesday
2695,-6.127469306479839
1929,18.000294618346925
3063,1574910.8638123153
3064,0.0
2,4, 1, 4, 0,16, 0.00,60.00,Wednesday
2695,-6.116929394537995
1929,18.000226565524856
3063,1407247.858677233
3064,0.0
2,4, 1, 4, 0,17, 0.00,60.00,Wednesday
2695,-6.1062117070467079
1929,18.000225427224156
3063,1320087.5913416343
3064,0.0
2,4, 1, 4, 0,18, 0.00,60.00,Wednesday
2695,-6.100286142319945
1929,18.000249677904397
3063,1322821.272467583
3064,0.0
2,4, 1, 4, 0,19, 0.00,60.00,Wednesday
2695,-6.62011812461071
1929,18.000404679213138
3063,1794339.5303186025
3064,0.0
2,4, 1, 4, 0,20, 0.00,60.00,Wednesday
2695,-6.632244149623127
1929,18.000275887701166
3063,1855309.3962888923
3064,0.0
2,4, 1, 4, 0,21, 0.00,60.00,Wednesday
2695,-6.6409433626942919
1929,18.000255750207605
3063,1976933.4532441868
3064,0.0
2,4, 1, 4, 0,22, 0.00,60.00,Wednesday
2695,-6.647688481025152
1929,18.000192531975597
3063,1992794.2622349845
3064,0.0
2,4, 1, 4, 0,23, 0.00,60.00,Wednesday
2695,-6.652746320415294
1929,18.00014763447555
3063,2000584.3029395329
3064,0.0
2,4, 1, 4, 0,24, 0.00,60.00,Wednesday
2695,-6.657041744814893
1929,18.000131121394629
3063,2003321.2905625015
3064,0.0
2,5, 1, 5, 0, 1, 0.00,60.00,Thursday
2695,-6.661694839570767
1929,18.000118421606769
3063,2009758.1682820663
3064,0.0
2,5, 1, 5, 0, 2, 0.00,60.00,Thursday
2695,-6.665986648431005
1929,18.000112517108545
3063,2017300.401119513
3064,0.0
2,5, 1, 5, 0, 3, 0.00,60.00,Thursday
2695,-6.669981336952568
1929,18.000127057590537
3063,2021460.0355245353
3064,0.0
2,5, 1, 5, 0, 4, 0.00,60.00,Thursday
2695,-6.67457472055271
1929,18.000158514757947
3063,2023059.111222226
3064,0.0
2,5, 1, 5, 0, 5, 0.00,60.00,Thursday
2695,-6.679915964959363
1929,18.000163748450715
3063,2034199.2202450373
3064,0.0
2,5, 1, 5, 0, 6, 0.00,60.00,Thursday
2695,-6.685187455857789
1929,18.00015086560229
3063,2049638.251123895
3064,0.0
2,5, 1, 5, 0, 7, 0.00,60.00,Thursday
2695,-6.701944120092385
1929,18.000163103938517
3063,2055932.3949325938
3064,0.0
2,5, 1, 5, 0, 8, 0.00,60.00,Thursday
2695,-6.7060165395925719
1929,18.000155605279706
3063,2068355.9419920976
3064,0.0
2,5, 1, 5, 0, 9, 0.00,60.00,Thursday
2695,-6.17088743255482
1929,18.000226267982215
3063,2001625.672742599
3064,0.0
2,5, 1, 5, 0,10, 0.00,60.00,Thursday
2695,-6.1534660287153219
1929,18.00036632963851
3063,1860055.0014266759
3064,0.0
2,5, 1, 5, 0,11, 0.00,60.00,Thursday
2695,-6.143775147872031
1929,18.000423445715243
3063,1767688.0893805416
3064,0.0
2,5, 1, 5, 0,12, 0.00,60.00,Thursday
2695,-6.139910042437858
1929,18.000416680302015
3063,1705398.1426778155
3064,0.0
2,5, 1, 5, 0,13, 0.00,60.00,Thursday
2695,-6.137949266155572
1929,18.00039091082817
3063,1685600.1355979534
3064,0.0
2,5, 1, 5, 0,14, 0.00,60.00,Thursday
2695,-6.133951907898216
1929,18.00036491512578
3063,1622614.7311566175
3064,0.0
2,5, 1, 5, 0,15, 0.00,60.00,Thursday
2695,-6.128339548729191
1929,18.000321088920534
3063,1486741.2372818096
3064,0.0
2,5, 1, 5, 0,16, 0.00,60.00,Thursday
2695,-6.123120732922209
1929,18.00029597157268
3063,1393239.2178541029
3064,0.0
2,5, 1, 5, 0,17, 0.00,60.00,Thursday
2695,-6.11846599318175
1929,18.000263422315393
3063,1300132.8178815488
3064,0.0
2,5, 1, 5, 0,18, 0.00,60.00,Thursday
2695,-6.114004981179811
1929,18.000238080060748
3063,1215248.5772621795
3064,0.0
2,5, 1, 5, 0,19, 0.00,60.00,Thursday
2695,-6.63646814746685
1929,18.00037654365313
3063,1615651.6040900229
3064,0.0
2,5, 1, 5, 0,20, 0.00,60.00,Thursday
2695,-6.649092706769639
1929,18.0002593388837
3063,1653550.3421612147
3064,0.0
2,5, 1, 5, 0,21, 0.00,60.00,Thursday
2695,-6.65841689886394
1929,18.000268164718884
3063,1823529.8619271056
3064,0.0
2,5, 1, 5, 0,22, 0.00,60.00,Thursday
2695,-6.666010522203046
1929,18.000234807392187
3063,1839001.865680023
3064,0.0
2,5, 1, 5, 0,23, 0.00,60.00,Thursday
2695,-6.6725352147119099
1929,18.000186626276915
3063,1855753.1485236502
3064,0.0
2,5, 1, 5, 0,24, 0.00,60.00,Thursday
2695,-6.677601777478922
1929,18.000092378102165
3063,1885493.869269971
3064,0.0
2,6, 1, 6, 0, 1, 0.00,60.00,Friday
2695,-6.680007292982604
1929,18.00003777866708
3063,1901997.7154319876
3064,0.0
2,6, 1, 6, 0, 2, 0.00,60.00,Friday
2695,-6.6815363985042579
1929,18.000004631736016
3063,1920252.5866352837
3064,0.0
2,6, 1, 6, 0, 3, 0.00,60.00,Friday
2695,-6.682009466128254
1929,18.00000050501122
3063,1940430.6970052643
3064,0.0
2,6, 1, 6, 0, 4, 0.00,60.00,Friday
2695,-6.681528281335917
1929,18.000000522695488
3063,1956404.1665643999
3064,0.0
2,6, 1, 6, 0, 5, 0.00,60.00,Friday
2695,-6.680536170359413
1929,18.000000534153313
3063,1969357.8708567457
3064,0.0
2,6, 1, 6, 0, 6, 0.00,60.00,Friday
2695,-6.6794236381876
1929,18.000000540683855
3063,1982010.6101508425
3064,0.0
2,6, 1, 6, 0, 7, 0.00,60.00,Friday
2695,-6.675670635216773
1929,18.000000547314039
3063,1983482.7083997585
3064,0.0
2,6, 1, 6, 0, 8, 0.00,60.00,Friday
2695,-6.6742762095784349
1929,18.000019330613246
3063,1978163.7781488
3064,0.0
2,6, 1, 6, 0, 9, 0.00,60.00,Friday
2695,-6.1407151168190359
1929,18.000167068219296
3063,1858144.7774819243
3064,0.0
2,6, 1, 6, 0,10, 0.00,60.00,Friday
2695,-6.1214558807360019
1929,18.000297320496963
3063,1579421.6984647848
3064,0.0
2,6, 1, 6, 0,11, 0.00,60.00,Friday
2695,-6.112510367237505
1929,18.000306617723898
3063,1388994.2264517204
3064,0.0
2,6, 1, 6, 0,12, 0.00,60.00,Friday
2695,-6.109747867256196
1929,18.00023897399517
3063,1225222.903261169
3064,0.0
2,6, 1, 6, 0,13, 0.00,60.00,Friday
2695,-6.107549011498681
1929,18.00020811626439
3063,1155613.8895647778
3064,0.0
2,6, 1, 6, 0,14, 0.00,60.00,Friday
2695,-6.103566014229817
1929,18.00017575820264
3063,973965.6260325738
3064,0.0
2,6, 1, 6, 0,15, 0.00,60.00,Friday
2695,-6.072101870572415
1929,18.16936135845658
3063,548629.2351717759
3064,0.0
2,6, 1, 6, 0,16, 0.00,60.00,Friday
2695,-6.005676523134119
1929,18.43763712973401
3063,258089.08262502333
3064,0.0
2,6, 1, 6, 0,17, 0.00,60.00,Friday
2695,-5.952955081810494
1929,18.57969227988875
3063,112949.86229463989
3064,0.0
2,6, 1, 6, 0,18, 0.00,60.00,Friday
2695,-5.932436979988737
1929,18.58279924751613
3063,109922.1481169543
3064,0.0
2,6, 1, 6, 0,19, 0.00,60.00,Friday
2695,-6.501454767228444
1929,18.02549704120935
3063,1054180.432253059
3064,0.0
2,6, 1, 6, 0,20, 0.00,60.00,Friday
2695,-6.535066690465662
1929,18.00015035619648
3063,1065901.320454492
3064,0.0
2,6, 1, 6, 0,21, 0.00,60.00,Friday
2695,-6.540753815236768
1929,18.00023511469169
3063,1350858.4709500592
3064,0.0
2,6, 1, 6, 0,22, 0.00,60.00,Friday
2695,-6.543795328722244
1929,18.000202619409334
3063,1327400.8401472539
3064,0.0
2,6, 1, 6, 0,23, 0.00,60.00,Friday
2695,-6.5468574499465579
1929,18.000193696929928
3063,1304993.1739352572
3064,0.0
2,6, 1, 6, 0,24, 0.00,60.00,Friday
2695,-6.550726624867113
1929,18.000195091146435
3063,1290096.1486194945
3064,0.0
2,7, 1, 7, 0, 1, 0.00,60.00,Saturday
2695,-6.555562250741059
1929,18.000186812968506
3063,1287547.3159738377
3064,0.0
2,7, 1, 7, 0, 2, 0.00,60.00,Saturday
2695,-6.560945269480143
1929,18.000191389186158
3063,1288659.1572155026
3064,0.0
2,7, 1, 7, 0, 3, 0.00,60.00,Saturday
2695,-6.5671724496922609
1929,18.000208853409079
3063,1292382.6904848419
3064,0.0
2,7, 1, 7, 0, 4, 0.00,60.00,Saturday
2695,-6.574620382907747
1929,18.000232411119958
3063,1298972.1153187205
3064,0.0
2,7, 1, 7, 0, 5, 0.00,60.00,Saturday
2695,-6.583568254280569
1929,18.000262500694377
3063,1285480.727131897
3064,0.0
2,7, 1, 7, 0, 6, 0.00,60.00,Saturday
2695,-6.599740583253975
1929,18.0002322879755
3063,1239335.0485685003
3064,0.0
2,7, 1, 7, 0, 7, 0.00,60.00,Saturday
2695,-6.412117609735962
1929,18.00015827990401
3063,1317695.61932495
3064,0.0
2,7, 1, 7, 0, 8, 0.00,60.00,Saturday
2695,-6.426428425794828
1929,18.000096561761415
3063,1397096.480177926
3064,0.0
2,7, 1, 7, 0, 9, 0.00,60.00,Saturday
2695,-5.958715868415474
1929,18.00005934910668
3063,1459105.9171959228
3064,0.0
2,7, 1, 7, 0,10, 0.00,60.00,Saturday
2695,-5.96500782129959
1929,18.00004596969573
3063,1508760.7213927143
3064,0.0
2,7, 1, 7, 0,11, 0.00,60.00,Saturday
2695,-5.970444717184275
1929,18.000033932593956
3063,1564382.3140166454
3064,0.0
2,7, 1, 7, 0,12, 0.00,60.00,Saturday
2695,-5.974579180864155
1929,18.0000235270254
3063,1615696.1952711314
3064,0.0
2,7, 1, 7, 0,13, 0.00,60.00,Saturday
2695,-5.976658871863051
1929,18.00000176646802
3063,1665120.0414874126
3064,0.0
2,7, 1, 7, 0,14, 0.00,60.00,Saturday
2695,-5.975754960791743
1929,18.000000226761306
3063,1708881.008560656
3064,0.0
2,7, 1, 7, 0,15, 0.00,60.00,Saturday
2695,-5.971178976635602
1929,18.00000014261164
3063,1741951.9449711198
3064,0.0
2,7, 1, 7, 0,16, 0.00,60.00,Saturday
2695,-5.962240311601158
1929,18.00000009240182
3063,1741865.4267125072
3064,0.0
2,7, 1, 7, 0,17, 0.00,60.00,Saturday
2695,-5.950535096051898
1929,18.000000076336467
3063,1671606.4162953762
3064,0.0
2,7, 1, 7, 0,18, 0.00,60.00,Saturday
2695,-5.93964783098286
1929,18.000000073693785
3063,1576933.555334782
3064,0.0
2,7, 1, 7, 0,19, 0.00,60.00,Saturday
2695,-6.40193394015274
1929,18.00000007375186
3063,1489135.9529297606
3064,0.0
2,7, 1, 7, 0,20, 0.00,60.00,Saturday
2695,-6.391956456892156
1929,18.000000075790095
3063,1413454.7580355253
3064,0.0
2,7, 1, 7, 0,21, 0.00,60.00,Saturday
2695,-6.383722823897849
1929,18.000000079972094
3063,1349999.7506701323
3064,0.0
2,7, 1, 7, 0,22, 0.00,60.00,Saturday
2695,-6.37748095631633
1929,18.000000086031127
3063,1300704.7106175353
3064,0.0
2,7, 1, 7, 0,23, 0.00,60.00,Saturday
2695,-6.373149436379383
1929,18.000000093000144
3063,1264620.6892623737
3064,0.0
2,7, 1, 7, 0,24, 0.00,60.00,Saturday
2695,-6.370734205204973
1929,18.000003995624227
3063,1240683.927740187
3064,0.0
2,8, 1, 8, 0, 1, 0.00,60.00,Sunday
2695,-6.369982145771698
1929,18.0000086718799
3063,1235467.31672045
3064,0.0
2,8, 1, 8, 0, 2, 0.00,60.00,Sunday
2695,-6.370115233635848
1929,18.000009375488788
3063,1240626.2816003829
3064,0.0
2,8, 1, 8, 0, 3, 0.00,60.00,Sunday
2695,-6.371018995701465
1929,18.00001555926401
3063,1250985.1174754175
3064,0.0
2,8, 1, 8, 0, 4, 0.00,60.00,Sunday
2695,-6.372692902568094
1929,18.000021864096536
3063,1267523.2474704604
3064,0.0
2,8, 1, 8, 0, 5, 0.00,60.00,Sunday
2695,-6.375007155521577
1929,18.000020228610329
3063,1291997.7108194743
3064,0.0
2,8, 1, 8, 0, 6, 0.00,60.00,Sunday
2695,-6.377713614801046
1929,18.000027067920028
3063,1316640.1568351277
3064,0.0
2,8, 1, 8, 0, 7, 0.00,60.00,Sunday
2695,-6.590523076799175
1929,18.000038154563339
3063,1342879.8794386546
3064,0.0
2,8, 1, 8, 0, 8, 0.00,60.00,Sunday
2695,-6.594463846766819
1929,18.000044714653677
3063,1373110.9011274924
3064,0.0
2,8, 1, 8, 0, 9, 0.00,60.00,Sunday
2695,-6.0916229302018769
1929,18.00004274617914
3063,1408352.8361809217
3064,0.0
2,8, 1, 8, 0,10, 0.00,60.00,Sunday
2695,-6.095151939328329
1929,18.000033923697523
3063,1446762.8827498989
3064,0.0
2,8, 1, 8, 0,11, 0.00,60.00,Sunday
2695,-6.098487902781979
1929,18.00001001049392
3063,1490205.7402453467
3064,0.0
2,8, 1, 8, 0,12, 0.00,60.00,Sunday
2695,-6.101278687390177
1929,18.00000017628599
3063,1527018.1107817689
3064,0.0
2,8, 1, 8, 0,13, 0.00,60.00,Sunday
2695,-6.103665685380194
1929,18.000002405004478
3063,1553559.8192946055
3064,0.0
2,8, 1, 8, 0,14, 0.00,60.00,Sunday
2695,-6.105472364120593
1929,18.00000056192533
3063,1575858.6701092644
3064,0.0
2,8, 1, 8, 0,15, 0.00,60.00,Sunday
2695,-6.10613396226844
1929,18.000000126224859
3063,1588554.2873525825
3064,0.0
2,8, 1, 8, 0,16, 0.00,60.00,Sunday
2695,-6.105193432591194
1929,18.000000113197428
3063,1585709.4669562483
3064,0.0
2,8, 1, 8, 0,17, 0.00,60.00,Sunday
2695,-6.102530865985064
1929,18.000000103714034
3063,1562790.5824947477
3064,0.0
2,8, 1, 8, 0,18, 0.00,60.00,Sunday
2695,-6.098612508310242
1929,18.000000099895187
3063,1525316.532237814
3064,0.0
2,8, 1, 8, 0,19, 0.00,60.00,Sunday
2695,-6.602022119474596
1929,18.00000010274118
3063,1471794.9709722177
3064,0.0
2,8, 1, 8, 0,20, 0.00,60.00,Sunday
2695,-6.597098551700132
1929,18.000000108064737
3063,1418292.4140915874
3064,0.0
2,8, 1, 8, 0,21, 0.00,60.00,Sunday
2695,-6.593269312138108
1929,18.000000112742723
3063,1384087.3449917134
3064,0.0
2,8, 1, 8, 0,22, 0.00,60.00,Sunday
2695,-6.590018753207741
1929,18.00000011437059
3063,1371740.6395729692
3064,0.0
2,8, 1, 8, 0,23, 0.00,60.00,Sunday
2695,-6.586894273677168
1929,18.000000119024667
3063,1358795.8500638344
3064,0.0
2,8, 1, 8, 0,24, 0.00,60.00,Sunday
2695,-6.584852413999364
1929,18.000000133962325
3063,1343627.4968221598
3064,0.0
2,9, 1, 9, 0, 1, 0.00,60.00,Monday
2695,-6.584773048761778
1929,18.000005319288357
3063,1332616.057096891
3064,0.0
2,9, 1, 9, 0, 2, 0.00,60.00,Monday
2695,-6.586265877195103
1929,18.000027920451605
3063,1335410.722178982
3064,0.0
2,9, 1, 9, 0, 3, 0.00,60.00,Monday
2695,-6.588489146359856
1929,18.00003376033243
3063,1352175.9778210764
3064,0.0
2,9, 1, 9, 0, 4, 0.00,60.00,Monday
2695,-6.591167065751217
1929,18.000024646096326
3063,1378175.8200399662
3064,0.0
2,9, 1, 9, 0, 5, 0.00,60.00,Monday
2695,-6.593916312294639
1929,18.000011344482777