Program Version,EnergyPlus, Version 8.7.0-78a111df4a, YMD=2019.05.28 05:48
1,5,Environment Title[],Latitude[deg],Longitude[deg],Time Zone[],Elevation[m]
2,6,Day of Simulation[],Month[],Day of Month[],DST Indicator[1=yes 0=no],Hour[],StartMinute[],EndMinute[],DayType
3,3,Cumulative Day of Simulation[],Month[],Day of Month[],DST Indicator[1=yes 0=no],DayType  ! When Daily Report Variables Requested
4,2,Cumulative Days of Simulation[],Month[]  ! When Monthly Report Variables Requested
5,1,Cumulative Days of Simulation[] ! When Run Period Report Variables Requested
4826,1,BEDROOM2.2,Zone Ideal Loads Zone Total Heating Energy [J] !Hourly
4827,1,BEDROOM2.2,Zone Ideal Loads Zone Total Cooling Energy [J] !Hourly
4973,1,BEDROOM2.2,Zone Thermal Comfort Fanger Model PMV [] !Hourly
End of Data Dictionary
1,RUNPERIOD,  29.58, 106.47,   8.00, 259.10
2,1, 1, 1, 0, 1, 0.00,60.00,Thursday
4973,-1.0642801314161486
4826,2287557.531793986
4827,6.013578968122602e-8
2,1, 1, 1, 0, 2, 0.00,60.00,Thursday
4973,-1.0568258021551545
4826,2298111.123857655
4827,8.901679393602535e-8
2,1, 1, 1, 0, 3, 0.00,60.00,Thursday
4973,-1.048837098432156
4826,2233951.5818379626
4827,7.377138899755664e-8
2,1, 1, 1, 0, 4, 0.00,60.00,Thursday
4973,-1.0421821891041728
4826,2201642.7309288645
4827,1.2042846719850787e-7
2,1, 1, 1, 0, 5, 0.00,60.00,Thursday
4973,-1.0387238326855366
4826,2218768.012754643
4827,1.2165628504590132e-7
2,1, 1, 1, 0, 6, 0.00,60.00,Thursday
4973,-1.038357131519442
4826,2240918.0830541488
4827,4.645244189305231e-8
2,1, 1, 1, 0, 7, 0.00,60.00,Thursday
4973,-1.0400305969187656
4826,2257800.4667938316
4827,7.765947884763591e-8
2,1, 1, 1, 0, 8, 0.00,60.00,Thursday
4973,-1.6615948611558545
4826,0.0
4827,0.0
2,1, 1, 1, 0, 9, 0.00,60.00,Thursday
4973,-2.0284775267840544
4826,0.0
4827,0.0
2,1, 1, 1, 0,10, 0.00,60.00,Thursday
4973,-2.072909195187559
4826,0.0
4827,0.0
2,1, 1, 1, 0,11, 0.00,60.00,Thursday
4973,-2.0793167262119405
4826,0.0
4827,0.0
2,1, 1, 1, 0,12, 0.00,60.00,Thursday
4973,-2.0748674232199528
4826,0.0
4827,0.0
2,1, 1, 1, 0,13, 0.00,60.00,Thursday
4973,-2.058193583209684
4826,0.0
4827,0.0
2,1, 1, 1, 0,14, 0.00,60.00,Thursday
4973,-2.0240131836562735
4826,0.0
4827,0.0
2,1, 1, 1, 0,15, 0.00,60.00,Thursday
4973,-1.9798860450582554
4826,0.0
4827,0.0
2,1, 1, 1, 0,16, 0.00,60.00,Thursday
4973,-1.9220248187936529
4826,0.0
4827,0.0
2,1, 1, 1, 0,17, 0.00,60.00,Thursday
4973,-1.8550013769998964
4826,0.0
4827,0.0
2,1, 1, 1, 0,18, 0.00,60.00,Thursday
4973,-1.7964651944339705
4826,0.0
4827,0.0
2,1, 1, 1, 0,19, 0.00,60.00,Thursday
4973,-1.7490032497727928
4826,0.0
4827,0.0
2,1, 1, 1, 0,20, 0.00,60.00,Thursday
4973,-1.721262301216337
4826,0.0
4827,0.0
2,1, 1, 1, 0,21, 0.00,60.00,Thursday
4973,-1.7605131563010786
4826,0.0
4827,0.0
2,1, 1, 1, 0,22, 0.00,60.00,Thursday
4973,-1.2529681535664299
4826,2905615.791061118
4827,9.599830264050979e-8
2,1, 1, 1, 0,23, 0.00,60.00,Thursday
4973,-1.0742721203420414
4826,2171883.3266811955
4827,7.131575330276974e-8
2,1, 1, 1, 0,24, 0.00,60.00,Thursday
4973,-1.070038409029862
4826,2071684.9981753005
4827,5.0954440666828307e-8
2,2, 1, 2, 0, 1, 0.00,60.00,Friday
4973,-1.0674016622584888
4826,2263595.283804266
4827,7.435026170490099e-8
2,2, 1, 2, 0, 2, 0.00,60.00,Friday
4973,-1.065368445692178
4826,2261367.212817601
4827,8.471943147014827e-8
2,2, 1, 2, 0, 3, 0.00,60.00,Friday
4973,-1.064151733035545
4826,2264459.1144209324
4827,3.253717295592651e-8
2,2, 1, 2, 0, 4, 0.00,60.00,Friday
4973,-1.0608723885456595
4826,2259680.269801695
4827,7.888729669502936e-8
2,2, 1, 2, 0, 5, 0.00,60.00,Friday
4973,-1.0567064795047734
4826,2247438.744400611
4827,5.381934897741303e-8
2,2, 1, 2, 0, 6, 0.00,60.00,Friday
4973,-1.0524776706140775
4826,2238723.0015438685
4827,1.2963710105395877e-7
2,2, 1, 2, 0, 7, 0.00,60.00,Friday
4973,-1.04833782397128
4826,2225691.4480051125
4827,2.5988811103161426e-8
2,2, 1, 2, 0, 8, 0.00,60.00,Friday
4973,-1.622431593640647
4826,0.0
4827,0.0
2,2, 1, 2, 0, 9, 0.00,60.00,Friday
4973,-1.9478549185072483
4826,0.0
4827,0.0
2,2, 1, 2, 0,10, 0.00,60.00,Friday
4973,-1.93788403820495
4826,0.0
4827,0.0
2,2, 1, 2, 0,11, 0.00,60.00,Friday
4973,-1.9207607935086193
4826,0.0
4827,0.0
2,2, 1, 2, 0,12, 0.00,60.00,Friday
4973,-1.9082439333073707
4826,0.0
4827,0.0
2,2, 1, 2, 0,13, 0.00,60.00,Friday
4973,-1.8945930208459956
4826,0.0
4827,0.0
2,2, 1, 2, 0,14, 0.00,60.00,Friday
4973,-1.8804847535232457
4826,0.0
4827,0.0
2,2, 1, 2, 0,15, 0.00,60.00,Friday
4973,-1.8553478665834864
4826,0.0
4827,0.0
2,2, 1, 2, 0,16, 0.00,60.00,Friday
4973,-1.8216891228994532
4826,0.0
4827,0.0
2,2, 1, 2, 0,17, 0.00,60.00,Friday
4973,-1.800665873328728
4826,0.0
4827,0.0
2,2, 1, 2, 0,18, 0.00,60.00,Friday
4973,-1.8225677926872064
4826,0.0
4827,0.0
2,2, 1, 2, 0,19, 0.00,60.00,Friday
4973,-1.8635060719143053
4826,0.0
4827,0.0
2,2, 1, 2, 0,20, 0.00,60.00,Friday
4973,-1.8885427825246857
4826,0.0
4827,0.0
2,2, 1, 2, 0,21, 0.00,60.00,Friday
4973,-1.9151307044427693
4826,0.0
4827,0.0
2,2, 1, 2, 0,22, 0.00,60.00,Friday
4973,-1.300169738829964
4826,3187476.8567975338
4827,5.584183782048058e-8
2,2, 1, 2, 0,23, 0.00,60.00,Friday
4973,-1.0824585219294814
4826,2206128.2441556577
4827,7.04972080711741e-8
2,2, 1, 2, 0,24, 0.00,60.00,Friday
4973,-1.0650704302642274
4826,2091383.7384355358
4827,5.617266651825048e-8
2,3, 1, 3, 0, 1, 0.00,60.00,Saturday
4973,-1.057646389700464
4826,2295301.063713553
4827,9.840184909328607e-8
2,3, 1, 3, 0, 2, 0.00,60.00,Saturday
4973,-1.0549975163104455
4826,2327861.8466428935
4827,3.304876372567378e-8
2,3, 1, 3, 0, 3, 0.00,60.00,Saturday
4973,-1.056963754803347
4826,2339130.510350892
4827,3.4788172342814508e-8
2,3, 1, 3, 0, 4, 0.00,60.00,Saturday
4973,-1.0585499872031228
4826,2335640.5725234185
4827,5.0749804358929398e-8
2,3, 1, 3, 0, 5, 0.00,60.00,Saturday
4973,-1.058567564047493
4826,2322512.583320995
4827,2.5477220333414153e-8
2,3, 1, 3, 0, 6, 0.00,60.00,Saturday
4973,-1.056932047455188
4826,2294091.519011059
4827,6.394884621840902e-8
2,3, 1, 3, 0, 7, 0.00,60.00,Saturday
4973,-1.0534534611858376
4826,2247455.419699038
4827,6.169784683152102e-8
2,3, 1, 3, 0, 8, 0.00,60.00,Saturday
4973,-1.0480419767697998
4826,2196310.768052767
4827,7.947733138280455e-8
2,3, 1, 3, 0, 9, 0.00,60.00,Saturday
4973,-1.0434192076026743
4826,2197671.7250444896
4827,4.348521542851813e-8
2,3, 1, 3, 0,10, 0.00,60.00,Saturday
4973,-1.0386051928195435
4826,2145134.224524517
4827,6.732534529874101e-8
2,3, 1, 3, 0,11, 0.00,60.00,Saturday
4973,-1.0346291898873124
4826,2153001.8257873209
4827,3.724380803760141e-8
2,3, 1, 3, 0,12, 0.00,60.00,Saturday
4973,-1.031400741754568
4826,2108411.9165690809
4827,7.315748007385992e-8
2,3, 1, 3, 0,13, 0.00,60.00,Saturday
4973,-1.0276371884138836
4826,2068383.11093887
4827,1.1766587704187259e-8
2,3, 1, 3, 0,14, 0.00,60.00,Saturday
4973,-1.0236868664715553
4826,2032022.1658522217
4827,4.6350123739102858e-8
2,3, 1, 3, 0,15, 0.00,60.00,Saturday
4973,-1.0189500222859907
4826,1963893.0603645165
4827,7.152038961066865e-8
2,3, 1, 3, 0,16, 0.00,60.00,Saturday
4973,-1.0126959482209566
4826,1946337.6441905159
4827,6.548361852765083e-8
2,3, 1, 3, 0,17, 0.00,60.00,Saturday
4973,-1.0078385204914518
4826,1975941.4458949944
4827,5.381934897741303e-8
2,3, 1, 3, 0,18, 0.00,60.00,Saturday
4973,-1.0034713796899245
4826,1958744.265980152
4827,5.361471266951412e-8
2,3, 1, 3, 0,19, 0.00,60.00,Saturday
4973,-0.9970756039983241
4826,1926095.255953106
4827,8.10359779279679e-8
2,3, 1, 3, 0,20, 0.00,60.00,Saturday
4973,-0.9899525976491642
4826,1785287.525299028
4827,5.453557605505921e-8
2,3, 1, 3, 0,21, 0.00,60.00,Saturday
4973,-0.9821439784778606
4826,1715449.8121919169
4827,6.48697096039541e-8
2,3, 1, 3, 0,22, 0.00,60.00,Saturday
4973,-0.9741951131673839
4826,1689182.5183373779
4827,6.205596037034411e-8
2,3, 1, 3, 0,23, 0.00,60.00,Saturday
4973,-0.9679238348846069
4826,1677461.4596401309
4827,3.969944373238832e-8
2,3, 1, 3, 0,24, 0.00,60.00,Saturday
4973,-0.9619415014119686
4826,1611904.665796936
4827,3.136051418550778e-8
2,4, 1, 4, 0, 1, 0.00,60.00,Sunday
4973,-0.958367941344221
4826,1748452.3120753675
4827,5.9898043221932089
2,4, 1, 4, 0, 2, 0.00,60.00,Sunday
4973,-0.9541280533977464
4826,1749141.4237465845
4827,5.586571205640212e-8
2,4, 1, 4, 0, 3, 0.00,60.00,Sunday
4973,-0.9509673588396186
4826,1730345.2607383482
4827,2.2458834791905248e-8
2,4, 1, 4, 0, 4, 0.00,60.00,Sunday
4973,-0.9478339353421825
4826,1717194.5549066938
4827,6.645564099017065e-8
2,4, 1, 4, 0, 5, 0.00,60.00,Sunday
4973,-0.9443935402246442
4826,1708501.5438158389
4827,4.184812496532686e-8
2,4, 1, 4, 0, 6, 0.00,60.00,Sunday
4973,-0.9406728793660042
4826,1703988.7179002483
4827,5.816787052026484e-8
2,4, 1, 4, 0, 7, 0.00,60.00,Sunday
4973,-0.9373798662368129
4826,1698102.3490950224
4827,4.200160219625104e-8
2,4, 1, 4, 0, 8, 0.00,60.00,Sunday
4973,-0.9348163046995653
4826,1687602.1095936797
4827,3.574314177967608e-8
2,4, 1, 4, 0, 9, 0.00,60.00,Sunday
4973,-0.9343219805539247
4826,1727173.8043204488
4827,4.6196646508178676e-8
2,4, 1, 4, 0,10, 0.00,60.00,Sunday
4973,-0.9344475589457427
4826,1700876.4405110894
4827,8.21614776214119e-8
2,4, 1, 4, 0,11, 0.00,60.00,Sunday
4973,-0.934971572142136
4826,1731738.78470939
4827,1.580815478519071e-8
2,4, 1, 4, 0,12, 0.00,60.00,Sunday
4973,-0.9376294204768277
4826,1700104.1725753705
4827,3.545324034348596e-8
2,4, 1, 4, 0,13, 0.00,60.00,Sunday
4973,-0.9388376795421269
4826,1659877.223310082
4827,2.404476617812179e-8
2,4, 1, 4, 0,14, 0.00,60.00,Sunday
4973,-0.9393171173736354
4826,1606885.7841973692
4827,5.218225851422176e-8
2,4, 1, 4, 0,15, 0.00,60.00,Sunday
4973,-0.9365667877852092
4826,1501182.4396614878
4827,2.291926648467779e-8
2,4, 1, 4, 0,16, 0.00,60.00,Sunday
4973,-0.9288566296040242
4826,1449328.98845398
4827,2.0821744328713977e-8
2,4, 1, 4, 0,17, 0.00,60.00,Sunday
4973,-0.9207777635050399
4826,1483495.929577735
4827,9.766267794475425e-8
2,4, 1, 4, 0,18, 0.00,60.00,Sunday
4973,-0.9164585960541054
4826,1494651.51920169
4827,2.5067947717616336e-8
2,4, 1, 4, 0,19, 0.00,60.00,Sunday
4973,-0.9125556541451564
4826,1506826.2295741528
4827,4.2871306504821408e-8
2,4, 1, 4, 0,20, 0.00,60.00,Sunday
4973,-0.9086489909724813
4826,1410004.156861147
4827,4.565947619994404e-8
2,4, 1, 4, 0,21, 0.00,60.00,Sunday
4973,-0.9064172353999719
4826,1376593.7636808835
4827,2.6551560949883425e-8
2,4, 1, 4, 0,22, 0.00,60.00,Sunday
4973,-0.9043813888468385
4826,1373148.7388315295
4827,7.776179700158537e-9
2,4, 1, 4, 0,23, 0.00,60.00,Sunday
4973,-0.9023206401570818
4826,1369219.649221315
4827,2.9467628337442876e-8
2,4, 1, 4, 0,24, 0.00,60.00,Sunday
4973,-0.9001081028479827
4826,1304142.65257671
4827,5.525180313270539e-8
2,5, 1, 5, 0, 1, 0.00,60.00,Monday
4973,-0.9001006802472219
4826,1437354.4136757979
4827,3.7479139791685159e-8
2,5, 1, 5, 0, 2, 0.00,60.00,Monday
4973,-0.8993071691048882
4826,1432544.7757944265
4827,1.8468426787876525e-8
2,5, 1, 5, 0, 3, 0.00,60.00,Monday
4973,-0.8994602427420319
4826,1447948.4968684945
4827,1.6933654478634709e-8
2,5, 1, 5, 0, 4, 0.00,60.00,Monday
4973,-0.9014339044484543
4826,1466399.2738536036
4827,5.990727913740557e-8
2,5, 1, 5, 0, 5, 0.00,60.00,Monday
4973,-0.9045608233526633
4826,1478653.558729169
4827,2.3993607101147064e-8
2,5, 1, 5, 0, 6, 0.00,60.00,Monday
4973,-0.9073277372178805
4826,1492011.1343572268
4827,4.0466829887009229e-8
2,5, 1, 5, 0, 7, 0.00,60.00,Monday
4973,-0.9098925117402708
4826,1505977.7842631294
4827,1.2892087397631258e-8
2,5, 1, 5, 0, 8, 0.00,60.00,Monday
4973,-1.4104594375181572
4826,0.0
4827,0.0
2,5, 1, 5, 0, 9, 0.00,60.00,Monday
4973,-1.6841931892521028
4826,0.0
4827,0.0
2,5, 1, 5, 0,10, 0.00,60.00,Monday
4973,-1.7047666441343464
4826,0.0
4827,0.0
2,5, 1, 5, 0,11, 0.00,60.00,Monday
4973,-1.7160351451262075
4826,0.0
4827,0.0
2,5, 1, 5, 0,12, 0.00,60.00,Monday
4973,-1.7247475453274577
4826,0.0
4827,0.0
2,5, 1, 5, 0,13, 0.00,60.00,Monday
4973,-1.7287750203857888
4826,0.0
4827,0.0
2,5, 1, 5, 0,14, 0.00,60.00,Monday
4973,-1.7258100929182805
4826,0.0
4827,0.0
2,5, 1, 5, 0,15, 0.00,60.00,Monday
4973,-1.720555547449643
4826,0.0
4827,0.0
2,5, 1, 5, 0,16, 0.00,60.00,Monday
4973,-1.713075745430527
4826,0.0
4827,0.0
2,5, 1, 5, 0,17, 0.00,60.00,Monday
4973,-1.7100234830174249
4826,0.0
4827,0.0
2,5, 1, 5, 0,18, 0.00,60.00,Monday
4973,-1.708632064813619
4826,0.0
4827,0.0
2,5, 1, 5, 0,19, 0.00,60.00,Monday
4973,-1.7098380288390647
4826,0.0
4827,0.0
2,5, 1, 5, 0,20, 0.00,60.00,Monday
4973,-1.7021824882863244
4826,0.0
4827,0.0
2,5, 1, 5, 0,21, 0.00,60.00,Monday
4973,-1.7163271580250555
4826,0.0
4827,0.0
2,5, 1, 5, 0,22, 0.00,60.00,Monday
4973,-1.1924257983062115
4826,2572355.4212702175
4827,4.2714418668765577e-8
2,5, 1, 5, 0,23, 0.00,60.00,Monday
4973,-1.0095160903758807
4826,1746818.0654325803
4827,5.0391690820106308e-8
2,5, 1, 5, 0,24, 0.00,60.00,Monday
4973,-0.9978420528297001
4826,1639652.1698781145
4827,4.169464773440268e-8
2,6, 1, 6, 0, 1, 0.00,60.00,Tuesday
4973,-0.9889041987391489
4826,1827394.1614766855
4827,5.346035342789719
2,6, 1, 6, 0, 2, 0.00,60.00,Tuesday
4973,-0.9816440658604687
4826,1827275.911112951
4827,5.156834959052503e-8
2,6, 1, 6, 0, 3, 0.00,60.00,Tuesday
4973,-0.9739173165584694
4826,1785290.9721150834
4827,1.304556462855544e-8
2,6, 1, 6, 0, 4, 0.00,60.00,Tuesday
4973,-0.9664883981071846
4826,1755713.4282289963
4827,2.808633325912524e-8
2,6, 1, 6, 0, 5, 0.00,60.00,Tuesday
4973,-0.9597009918665538
4826,1743279.466324178
4827,6.195364221639466e-8
2,6, 1, 6, 0, 6, 0.00,60.00,Tuesday
4973,-0.9534535656447329
4826,1727688.1919675875
4827,3.7550762499449777e-8
2,6, 1, 6, 0, 7, 0.00,60.00,Tuesday
4973,-0.9482313210785867
4826,1713844.540216289
4827,6.425580068025738e-8
2,6, 1, 6, 0, 8, 0.00,60.00,Tuesday
4973,-1.4483984869980078
4826,0.0
4827,0.0
2,6, 1, 6, 0, 9, 0.00,60.00,Tuesday
4973,-1.730195602215898
4826,0.0
4827,0.0
2,6, 1, 6, 0,10, 0.00,60.00,Tuesday
4973,-1.713779619560277
4826,0.0
4827,0.0
2,6, 1, 6, 0,11, 0.00,60.00,Tuesday
4973,-1.7031196561571607
4826,0.0
4827,0.0
2,6, 1, 6, 0,12, 0.00,60.00,Tuesday
4973,-1.6907313828725559
4826,0.0
4827,0.0
2,6, 1, 6, 0,13, 0.00,60.00,Tuesday
4973,-1.6649836889842443
4826,0.0
4827,0.0
2,6, 1, 6, 0,14, 0.00,60.00,Tuesday
4973,-1.623655200687344
4826,0.0
4827,0.0
2,6, 1, 6, 0,15, 0.00,60.00,Tuesday
4973,-1.584266050345343
4826,0.0
4827,0.0
2,6, 1, 6, 0,16, 0.00,60.00,Tuesday
4973,-1.5307369812983709
4826,0.0
4827,0.0
2,6, 1, 6, 0,17, 0.00,60.00,Tuesday
4973,-1.4948225456407572
4826,0.0
4827,0.0
2,6, 1, 6, 0,18, 0.00,60.00,Tuesday
4973,-1.5077569368633328
4826,0.0
4827,0.0
2,6, 1, 6, 0,19, 0.00,60.00,Tuesday
4973,-1.5394967362552308
4826,0.0
4827,0.0
2,6, 1, 6, 0,20, 0.00,60.00,Tuesday
4973,-1.5582628300731263
4826,0.0
4827,0.0
2,6, 1, 6, 0,21, 0.00,60.00,Tuesday
4973,-1.5882977827183478
4826,0.0
4827,0.0
2,6, 1, 6, 0,22, 0.00,60.00,Tuesday
4973,-1.1270441529244884
4826,2296576.239351198
4827,5.579920525633497e-8
2,6, 1, 6, 0,23, 0.00,60.00,Tuesday
4973,-0.9662735306157249
4826,1606278.181903766
4827,1.3199041859479621e-8
2,6, 1, 6, 0,24, 0.00,60.00,Tuesday
4973,-0.9563837439448863
4826,1513251.4645819462
4827,8.697043085703627e-9
2,7, 1, 7, 0, 1, 0.00,60.00,Wednesday
4973,-0.9519645202016328
4826,1712599.5357662789
4827,6.342710483815089e-8
2,7, 1, 7, 0, 2, 0.00,60.00,Wednesday
4973,-0.9498338977959403
4826,1731090.5458632347
4827,4.246203388902359e-8
2,7, 1, 7, 0, 3, 0.00,60.00,Wednesday
4973,-0.9497940122944057
4826,1763547.9942829225
4827,4.077378434885759e-8
2,7, 1, 7, 0, 4, 0.00,60.00,Wednesday
4973,-0.9515588906528936
4826,1812131.841244432
4827,1.0149960871785879e-7
2,7, 1, 7, 0, 5, 0.00,60.00,Wednesday
4973,-0.955428092770051
4826,1876341.0028739898
4827,5.576339390245266e-8
2,7, 1, 7, 0, 6, 0.00,60.00,Wednesday
4973,-0.9609805128983935
4826,1937773.0986022659
4827,5.3717030823463577e-8
2,7, 1, 7, 0, 7, 0.00,60.00,Wednesday
4973,-0.9665814059275077
4826,1987452.8390690287
4827,1.6984813555609436e-8
2,7, 1, 7, 0, 8, 0.00,60.00,Wednesday
4973,-1.5934765962354638
4826,0.0
4827,0.0
2,7, 1, 7, 0, 9, 0.00,60.00,Wednesday
4973,-1.9268264365312269
4826,0.0
4827,0.0
2,7, 1, 7, 0,10, 0.00,60.00,Wednesday
4973,-1.937182505010781
4826,0.0
4827,0.0
2,7, 1, 7, 0,11, 0.00,60.00,Wednesday
4973,-1.9268900876844768
4826,0.0
4827,0.0
2,7, 1, 7, 0,12, 0.00,60.00,Wednesday
4973,-1.9124575581229553
4826,0.0
4827,0.0
2,7, 1, 7, 0,13, 0.00,60.00,Wednesday
4973,-1.8615604430413587
4826,0.0
4827,0.0
2,7, 1, 7, 0,14, 0.00,60.00,Wednesday
4973,-1.7894170107034003
4826,0.0
4827,0.0
2,7, 1, 7, 0,15, 0.00,60.00,Wednesday
4973,-1.6941972579127303
4826,0.0
4827,0.0
2,7, 1, 7, 0,16, 0.00,60.00,Wednesday
4973,-1.5760630374114762
4826,0.0
4827,0.0
2,7, 1, 7, 0,17, 0.00,60.00,Wednesday
4973,-1.494331893650544
4826,0.0
4827,0.0
2,7, 1, 7, 0,18, 0.00,60.00,Wednesday
4973,-1.5087140123620276
4826,0.0
4827,0.0
2,7, 1, 7, 0,19, 0.00,60.00,Wednesday
4973,-1.5382968971109024
4826,0.0
4827,0.0
2,7, 1, 7, 0,20, 0.00,60.00,Wednesday
4973,-1.5566850064767433
4826,0.0
4827,0.0
2,7, 1, 7, 0,21, 0.00,60.00,Wednesday
4973,-1.5789664261573453
4826,0.0
4827,0.0
2,7, 1, 7, 0,22, 0.00,60.00,Wednesday
4973,-1.1414362598236348
4826,2187523.337809959
4827,6.46650732960552e-8
2,7, 1, 7, 0,23, 0.00,60.00,Wednesday
4973,-0.990960264917879
4826,1563490.463751481
4827,4.3024783735745589e-8
2,7, 1, 7, 0,24, 0.00,60.00,Wednesday
4973,-0.9805622763310555
4826,1475694.7718871772
4827,3.744844434550032e-8
2,8, 1, 8, 0, 1, 0.00,60.00,Thursday
4973,-0.9750447476542816
4826,1677393.0746449955
4827,5.61483987509676e-8
2,8, 1, 8, 0, 2, 0.00,60.00,Thursday
4973,-0.9701965995564722
4826,1686300.5144227837
4827,8.037090992729645e-8
2,8, 1, 8, 0, 3, 0.00,60.00,Thursday
4973,-0.965989414898158
4826,1709207.1193273995
4827,2.864908310584724e-8
2,8, 1, 8, 0, 4, 0.00,60.00,Thursday
4973,-0.9625512010515628
4826,1729970.4297436213
4827,3.842046680802014e-8
2,8, 1, 8, 0, 5, 0.00,60.00,Thursday
4973,-0.9595036228654041
4826,1739334.0737422878
4827,1.1306156011414714e-7
2,8, 1, 8, 0, 6, 0.00,60.00,Thursday
4973,-0.9563246669843432
4826,1747296.319038588
4827,6.087930159992539e-8
2,8, 1, 8, 0, 7, 0.00,60.00,Thursday
4973,-0.9541533966287409
4826,1746455.1024915986
4827,6.18513240624452e-8
2,8, 1, 8, 0, 8, 0.00,60.00,Thursday
4973,-1.4659529534696792
4826,0.0
4827,0.0
2,8, 1, 8, 0, 9, 0.00,60.00,Thursday
4973,-1.752065871211876
4826,0.0
4827,0.0
2,8, 1, 8, 0,10, 0.00,60.00,Thursday
4973,-1.754369742495717
4826,0.0
4827,0.0
2,8, 1, 8, 0,11, 0.00,60.00,Thursday
4973,-1.7392131572558214
4826,0.0
4827,0.0
2,8, 1, 8, 0,12, 0.00,60.00,Thursday
4973,-1.7195530326505169
4826,0.0
4827,0.0
2,8, 1, 8, 0,13, 0.00,60.00,Thursday
4973,-1.6943473464851036
4826,0.0
4827,0.0
2,8, 1, 8, 0,14, 0.00,60.00,Thursday
4973,-1.6710426756445025
4826,0.0
4827,0.0
2,8, 1, 8, 0,15, 0.00,60.00,Thursday
4973,-1.6493361799434455
4826,0.0
4827,0.0
2,8, 1, 8, 0,16, 0.00,60.00,Thursday
4973,-1.6300157933595432
4826,0.0
4827,0.0
2,8, 1, 8, 0,17, 0.00,60.00,Thursday
4973,-1.6134244798030473
4826,0.0
4827,0.0
2,8, 1, 8, 0,18, 0.00,60.00,Thursday
4973,-1.6131638816579955
4826,0.0
4827,0.0
2,8, 1, 8, 0,19, 0.00,60.00,Thursday
4973,-1.6287816419277093
4826,0.0
4827,0.0
2,8, 1, 8, 0,20, 0.00,60.00,Thursday
4973,-1.6417933386790987
4826,0.0
4827,0.0
2,8, 1, 8, 0,21, 0.00,60.00,Thursday
4973,-1.654110030354734
4826,0.0
4827,0.0
2,8, 1, 8, 0,22, 0.00,60.00,Thursday
4973,-1.162138176040608
4826,2357858.1179870145
4827,9.512177712167613e-8
2,8, 1, 8, 0,23, 0.00,60.00,Thursday
4973,-0.9908736169722336
4826,1612807.4234635658
4827,2.532374310248997e-8
2,8, 1, 8, 0,24, 0.00,60.00,Thursday
4973,-0.9756954767980288
4826,1522641.852958229
4827,3.1462832339457239e-8
2,9, 1, 9, 0, 1, 0.00,60.00,Friday
4973,-0.9687206506398056
4826,1736830.4741246072
4827,3.282439463094176e-8
2,9, 1, 9, 0, 2, 0.00,60.00,Friday
4973,-0.9658062534154323
4826,1763130.238320567
4827,8.850520316627808e-9
2,9, 1, 9, 0, 3, 0.00,60.00,Friday
4973,-0.9632804863534257
4826,1768899.5826353566
4827,2.916067387559451e-8
2,9, 1, 9, 0, 4, 0.00,60.00,Friday
4973,-0.9600886806201869
4826,1758303.2996339328
4827,1.1188490134372842e-7
2,9, 1, 9, 0, 5, 0.00,60.00,Friday
4973,-0.9561032659838056
4826,1746192.215519175
4827,2.4147084332071246e-8
2,9, 1, 9, 0, 6, 0.00,60.00,Friday
4973,-0.9520954163389278
4826,1736744.610972077
4827,1.9338131096446888e-8
2,9, 1, 9, 0, 7, 0.00,60.00,Friday
4973,-0.9490953928704755
4826,1728124.752061883
4827,6.814389053033665e-8
2,9, 1, 9, 0, 8, 0.00,60.00,Friday
4973,-1.4522778157598884
4826,0.0
4827,0.0
2,9, 1, 9, 0, 9, 0.00,60.00,Friday
4973,-1.7430192903573492
4826,0.0
4827,0.0
2,9, 1, 9, 0,10, 0.00,60.00,Friday
4973,-1.763358909180722
4826,0.0
4827,0.0
2,9, 1, 9, 0,11, 0.00,60.00,Friday
4973,-1.766501156581116
4826,0.0
4827,0.0
2,9, 1, 9, 0,12, 0.00,60.00,Friday
4973,-1.764744942840884
4826,0.0
4827,0.0
2,9, 1, 9, 0,13, 0.00,60.00,Friday
4973,-1.7624172639019767
4826,0.0
4827,0.0
2,9, 1, 9, 0,14, 0.00,60.00,Friday
4973,-1.7550386948328352
4826,0.0
4827,0.0
2,9, 1, 9, 0,15, 0.00,60.00,Friday
4973,-1.7515469870601115
4826,0.0
4827,0.0
2,9, 1, 9, 0,16, 0.00,60.00,Friday
4973,-1.7478461325220534
4826,0.0
4827,0.0
2,9, 1, 9, 0,17, 0.00,60.00,Friday
4973,-1.7506270406294798
4826,0.0
4827,0.0
2,9, 1, 9, 0,18, 0.00,60.00,Friday
4973,-1.7594304249493547
4826,0.0
4827,0.0
2,9, 1, 9, 0,19, 0.00,60.00,Friday
4973,-1.765702143115258
4826,0.0
4827,0.0
2,9, 1, 9, 0,20, 0.00,60.00,Friday
4973,-1.7562672741444337
4826,0.0
4827,0.0
2,9, 1, 9, 0,21, 0.00,60.00,Friday
4973,-1.7546573500758678
4826,0.0
4827,0.0
2,9, 1, 9, 0,22, 0.00,60.00,Friday
4973,-1.2075387011341806
4826,2654710.2564606585
4827,8.108713700494263e-8
2,9, 1, 9, 0,23, 0.00,60.00,Friday
4973,-1.0218010097321333
4826,1801120.0288077049
4827,4.1796965888352136e-8
2,9, 1, 9, 0,24, 0.00,60.00,Friday
4973,-1.0081404329297459
4826,1663764.8959802145
4827,2.1998403099132703e-8
2,10, 1,10, 0, 1, 0.00,60.00,Saturday
4973,-1.0001610643641737
4826,1821257.8202401186
4827,1.96623962646478
2,10, 1,10, 0, 2, 0.00,60.00,Saturday
4973,-0.9939876547890025
4826,1797475.9913864628
4827,3.335571818752214e-8
2,10, 1,10, 0, 3, 0.00,60.00,Saturday
4973,-0.9884457230177239
4826,1762382.9171685926
4827,7.975700100359973e-8
2,10, 1,10, 0, 4, 0.00,60.00,Saturday
4973,-0.9829876966048795
4826,1736085.2199648778
4827,5.688889359589666e-8
2,10, 1,10, 0, 5, 0.00,60.00,Saturday
4973,-0.977470536689176
4826,1720643.5078163879
4827,4.860112312599085e-9
2,10, 1,10, 0, 6, 0.00,60.00,Saturday
4973,-0.9723733595775053
4826,1712443.3955694005
4827,4.844764589506667e-8
2,10, 1,10, 0, 7, 0.00,60.00,Saturday
4973,-0.968191853439262
4826,1703843.1247615799
4827,7.070184437907301e-8
2,10, 1,10, 0, 8, 0.00,60.00,Saturday
4973,-0.9649296755113503
4826,1688943.8727439796
4827,4.937703579344088e-8
2,10, 1,10, 0, 9, 0.00,60.00,Saturday
4973,-0.9619546584166261
4826,1737363.6966325795
4827,6.875779945403338e-8
2,10, 1,10, 0,10, 0.00,60.00,Saturday
4973,-0.9559500210105054
4826,1691066.8390542786
4827,2.5835333872237244e-8
2,10, 1,10, 0,11, 0.00,60.00,Saturday
4973,-0.9512032869547029
4826,1686218.7977768328
4827,1.759872247930616e-8
2,10, 1,10, 0,12, 0.00,60.00,Saturday
4973,-0.9492996856088529
4826,1623120.4941542759
4827,3.335571818752214e-8
2,10, 1,10, 0,13, 0.00,60.00,Saturday
4973,-0.9488341032179536
4826,1559650.1517000762
4827,7.929656931082718e-9
2,10, 1,10, 0,14, 0.00,60.00,Saturday
4973,-0.9487296526315769
4826,1496534.5140050599
4827,1.9900880943168887e-8
2,10, 1,10, 0,15, 0.00,60.00,Saturday
4973,-0.9409494360307367
4826,1346059.8611665865
4827,3.893205757776741e-8
2,10, 1,10, 0,16, 0.00,60.00,Saturday
4973,-0.925211852603286
4826,1253982.3262834103
4827,3.540208126651123e-8
2,10, 1,10, 0,17, 0.00,60.00,Saturday
4973,-0.9091863276437882
4826,1282278.5535792406
4827,4.660591912397649e-8
2,10, 1,10, 0,18, 0.00,60.00,Saturday
4973,-0.9006761290801537
4826,1303584.811600222
4827,3.7346126191550869e-8
2,10, 1,10, 0,19, 0.00,60.00,Saturday
4973,-0.8977044522607717
4826,1337323.8858918336
4827,3.361151357239578e-8
2,10, 1,10, 0,20, 0.00,60.00,Saturday
4973,-0.8962739994304962
4826,1250416.5168159104
4827,1.7470824786869345e-8
2,10, 1,10, 0,21, 0.00,60.00,Saturday
4973,-0.8951277277314753
4826,1228025.6104686817
4827,3.893205757776741e-8
2,10, 1,10, 0,22, 0.00,60.00,Saturday
4973,-0.8903706796317558
4826,1215787.7257240425
4827,4.0876102502807046e-8
2,10, 1,10, 0,23, 0.00,60.00,Saturday
4973,-0.8835433954130688
4826,1215811.0120847836
4827,3.509512680466287e-8
2,10, 1,10, 0,24, 0.00,60.00,Saturday
4973,-0.8772674175544687
4826,1194558.1661964693
4827,3.6425262806005779e-8
2,11, 1,11, 0, 1, 0.00,60.00,Sunday
4973,-0.8779254558281822
4826,1394691.7907355652
4827,3.7275071917974859e-8
2,11, 1,11, 0, 2, 0.00,60.00,Sunday
4973,-0.8829062663082787
4826,1459480.447765765
4827,6.041886990715284e-8
2,11, 1,11, 0, 3, 0.00,60.00,Sunday
4973,-0.8893886757620113
4826,1493760.8758803299
4827,4.2155079427175227e-8
2,11, 1,11, 0, 4, 0.00,60.00,Sunday
4973,-0.8929862786788311
4826,1506558.645080093
4827,8.998881639854517e-8
2,11, 1,11, 0, 5, 0.00,60.00,Sunday
4973,-0.8942980882649767
4826,1521740.341029164
4827,4.583853296935558e-8
2,11, 1,11, 0, 6, 0.00,60.00,Sunday
4973,-0.8963585157227287
4826,1541292.3222804696
4827,6.144205144664738e-8
2,11, 1,11, 0, 7, 0.00,60.00,Sunday
4973,-0.8991960458326689
4826,1557206.123833167
4827,4.56850557384314e-8
2,11, 1,11, 0, 8, 0.00,60.00,Sunday
4973,-0.9008142899371046
4826,1542440.398139295
4827,3.9111114347178957e-8
2,11, 1,11, 0, 9, 0.00,60.00,Sunday
4973,-0.8998300409411517
4826,1523682.3654669373
4827,3.934133019356523e-8
2,11, 1,11, 0,10, 0.00,60.00,Sunday
4973,-0.8950752386398797
4826,1448536.675636196
4827,4.9112713895738128e-8
2,11, 1,11, 0,11, 0.00,60.00,Sunday
4973,-0.8886576970697764
4826,1450478.625877024
4827,3.299760464869905e-8
2,11, 1,11, 0,12, 0.00,60.00,Sunday
4973,-0.8833830877931661
4826,1412180.3420550167
4827,6.906475391588174e-9
2,11, 1,11, 0,13, 0.00,60.00,Sunday
4973,-0.8796561905686144
4826,1381306.4355496348
4827,7.980816008057446e-9
2,11, 1,11, 0,14, 0.00,60.00,Sunday
4973,-0.8764720890321379
4826,1360968.1431096593
4827,5.6479620980098846e-8
2,11, 1,11, 0,15, 0.00,60.00,Sunday
4973,-0.8733802264229016
4826,1271830.0445102079
4827,2.5374902179464699e-8
2,11, 1,11, 0,16, 0.00,60.00,Sunday
4973,-0.8697447381648946
4826,1242019.3321914743
4827,2.5784174795262517e-8
2,11, 1,11, 0,17, 0.00,60.00,Sunday
4973,-0.8680360624737628
4826,1282092.2048493708
4827,4.936850928061176e-8
2,11, 1,11, 0,18, 0.00,60.00,Sunday
4973,-0.8676071689730529
4826,1272011.7991295043
4827,3.192326403222978e-8
2,11, 1,11, 0,19, 0.00,60.00,Sunday
4973,-0.8653288306188227
4826,1249765.911626846
4827,5.908873390580993e-8
2,11, 1,11, 0,20, 0.00,60.00,Sunday
4973,-0.862862777989797
4826,1110125.515932389
4827,4.5710635276918768e-8
2,11, 1,11, 0,21, 0.00,60.00,Sunday
4973,-0.8603758934698002
4826,1054647.1716443748
4827,2.8904878490720877e-8
2,11, 1,11, 0,22, 0.00,60.00,Sunday
4973,-0.8577807396490726
4826,1038316.7369551737
4827,1.4017587091075257e-8
2,11, 1,11, 0,23, 0.00,60.00,Sunday
4973,-0.8569941886803473
4826,1027195.2898249496
4827,1.4887291399645619e-8
2,11, 1,11, 0,24, 0.00,60.00,Sunday
4973,-0.8564750989096144
4826,966905.0174154601
4827,1.9952040020143614e-8
2,12, 1,12, 0, 1, 0.00,60.00,Monday
4973,-0.857665369541547
4826,1110016.4102571728
4827,2.538129706408654e-8
2,12, 1,12, 0, 2, 0.00,60.00,Monday
4973,-0.8589688135227256
4826,1122075.7921189029
4827,2.6398083718959243e-8
2,12, 1,12, 0, 3, 0.00,60.00,Monday
4973,-0.8609605336068997
4826,1153721.1183094059
4827,3.4225422496092509e-8
2,12, 1,12, 0, 4, 0.00,60.00,Monday
4973,-0.8624751532014792
4826,1182735.85267842
4827,1.156195139628835e-8
2,12, 1,12, 0, 5, 0.00,60.00,Monday
4973,-0.8624367912375184
4826,1209316.474506421
4827,4.312710188969504e-8
2,12, 1,12, 0, 6, 0.00,60.00,Monday
4973,-0.860875396613069
4826,1234100.825293229
4827,1.0129497240995989e-8
2,12, 1,12, 0, 7, 0.00,60.00,Monday
4973,-0.8581789228515909
4826,1250842.4307153205
4827,4.7629100663471038e-8
2,12, 1,12, 0, 8, 0.00,60.00,Monday
4973,-1.296901942396495
4826,0.0
4827,0.0
2,12, 1,12, 0, 9, 0.00,60.00,Monday
4973,-1.5317423927623433
4826,0.0
4827,0.0
2,12, 1,12, 0,10, 0.00,60.00,Monday
4973,-1.5351203578494309
4826,0.0
4827,0.0
2,12, 1,12, 0,11, 0.00,60.00,Monday
4973,-1.5372091535439987
4826,0.0
4827,0.0
2,12, 1,12, 0,12, 0.00,60.00,Monday
4973,-1.5437907835477903
4826,0.0
4827,0.0
2,12, 1,12, 0,13, 0.00,60.00,Monday
4973,-1.5473312633821884
4826,0.0
4827,0.0
2,12, 1,12, 0,14, 0.00,60.00,Monday
4973,-1.553891769598454
4826,0.0
4827,0.0
2,12, 1,12, 0,15, 0.00,60.00,Monday
4973,-1.5531530823055087
4826,0.0
4827,0.0
2,12, 1,12, 0,16, 0.00,60.00,Monday
4973,-1.5453173453614846
4826,0.0
4827,0.0
2,12, 1,12, 0,17, 0.00,60.00,Monday
4973,-1.5350813322953192
4826,0.0
4827,0.0
2,12, 1,12, 0,18, 0.00,60.00,Monday
4973,-1.5260602774106409
4826,0.0
4827,0.0
2,12, 1,12, 0,19, 0.00,60.00,Monday
4973,-1.524799023958999
4826,0.0
4827,0.0
2,12, 1,12, 0,20, 0.00,60.00,Monday
4973,-1.5191331096787085
4826,0.0
4827,0.0
2,12, 1,12, 0,21, 0.00,60.00,Monday
4973,-1.5225232378005429
4826,0.0
4827,0.0
2,12, 1,12, 0,22, 0.00,60.00,Monday
4973,-1.0777541021482505
4826,1993810.4763481946
4827,5.197080099605955e-8
2,12, 1,12, 0,23, 0.00,60.00,Monday
4973,-0.9274771918694807
4826,1314524.6390477138
4827,2.297042556165252e-8
2,12, 1,12, 0,24, 0.00,60.00,Monday
4973,-0.916657636362526
4826,1204414.2864389662
4827,2.1231016944511795e-8
2,13, 1,13, 0, 1, 0.00,60.00,Tuesday
4973,-0.9100543341520079
4826,1381930.2406608775
4827,4.279052769999225
2,13, 1,13, 0, 2, 0.00,60.00,Tuesday
4973,-0.9045063800141547
4826,1373224.9415352166
4827,4.870344127994031e-8
2,13, 1,13, 0, 3, 0.00,60.00,Tuesday
4973,-0.8995840632568966
4826,1366654.0266026508
4827,0.0
2,13, 1,13, 0, 4, 0.00,60.00,Tuesday
4973,-0.8952311098328172
4826,1360776.7819866436
4827,1.3864109860151075e-8
2,13, 1,13, 0, 5, 0.00,60.00,Tuesday
4973,-0.8911260353588647
4826,1359952.0117896205
4827,4.2308556658099408e-8
2,13, 1,13, 0, 6, 0.00,60.00,Tuesday
4973,-0.8871573854789652
4826,1363351.5524263085
4827,3.033733264601324e-8
2,13, 1,13, 0, 7, 0.00,60.00,Tuesday
4973,-0.8843394131973263
4826,1364272.7137622219
4827,9.08073616301408e-8