Program Version,EnergyPlus, Version 8.7.0-78a111df4a, YMD=2019.06.21 03:04
1,5,Environment Title[],Latitude[deg],Longitude[deg],Time Zone[],Elevation[m]
2,6,Day of Simulation[],Month[],Day of Month[],DST Indicator[1=yes 0=no],Hour[],StartMinute[],EndMinute[],DayType
3,3,Cumulative Day of Simulation[],Month[],Day of Month[],DST Indicator[1=yes 0=no],DayType  ! When Daily Report Variables Requested
4,2,Cumulative Days of Simulation[],Month[]  ! When Monthly Report Variables Requested
5,1,Cumulative Days of Simulation[] ! When Run Period Report Variables Requested
1929,1,THERMAL ZONE: SPACE 201,Zone Air Temperature [C] !Hourly
2695,1,THERMAL ZONE: SPACE 201 PEOPLE,Zone Thermal Comfort Fanger Model PMV [] !Hourly
3063,1,THERMAL ZONE: SPACE 305 PTHP,Zone Packaged Terminal Heat Pump Total Heating Energy [J] !Hourly
3064,1,THERMAL ZONE: SPACE 305 PTHP,Zone Packaged Terminal Heat Pump Total Cooling Energy [J] !Hourly
End of Data Dictionary
1,ANN HTG 99.6% CONDNS DB,  29.58, 106.47,   8.00, 259.10
2,1, 1,21, 0, 1, 0.00,60.00,WinterDesignDay
2695,-6.494100027729011
1929,18.000065948409988
3063,4652458.354151006
3064,0.0
2,1, 1,21, 0, 2, 0.00,60.00,WinterDesignDay
2695,-6.498014403656807
1929,18.000049852887618
3063,4671526.089238931
3064,0.0
2,1, 1,21, 0, 3, 0.00,60.00,WinterDesignDay
2695,-6.501280407965429
1929,18.000035806171164
3063,4691337.849559219
3064,0.0
2,1, 1,21, 0, 4, 0.00,60.00,WinterDesignDay
2695,-6.504145595974536
1929,18.00003035769241
3063,4709105.087215959
3064,0.0
2,1, 1,21, 0, 5, 0.00,60.00,WinterDesignDay
2695,-6.506868869678065
1929,18.000023935615844
3063,4729335.078735736
3064,0.0
2,1, 1,21, 0, 6, 0.00,60.00,WinterDesignDay
2695,-6.509128222141096
1929,17.9999959219371
3063,4759702.092782484
3064,0.0
2,1, 1,21, 0, 7, 0.00,60.00,WinterDesignDay
2695,-5.6777118299629569
1929,17.999927455974235
3063,4798823.01388022
3064,0.0
2,1, 1,21, 0, 8, 0.00,60.00,WinterDesignDay
2695,-5.674824859149482
1929,17.999833328477388
3063,5185312.330104109
3064,0.0
2,1, 1,21, 0, 9, 0.00,60.00,WinterDesignDay
2695,-5.319621325381919
1929,18.000099127264364
3063,6310378.692386673
3064,0.0
2,1, 1,21, 0,10, 0.00,60.00,WinterDesignDay
2695,-5.3008069966426929
1929,18.000706537873055
3063,7304556.979032488
3064,0.0
2,1, 1,21, 0,11, 0.00,60.00,WinterDesignDay
2695,-5.2889236970854
1929,18.000900722155504
3063,7021262.97328198
3064,0.0
2,1, 1,21, 0,12, 0.00,60.00,WinterDesignDay
2695,-5.281176961165317
1929,18.00092783310365
3063,6834820.35469491
3064,0.0
2,1, 1,21, 0,13, 0.00,60.00,WinterDesignDay
2695,-5.276946787977936
1929,18.000841916260489
3063,6365992.978809149
3064,0.0
2,1, 1,21, 0,14, 0.00,60.00,WinterDesignDay
2695,-5.273332809275293
1929,18.00081804963204
3063,6292799.929875786
3064,0.0
2,1, 1,21, 0,15, 0.00,60.00,WinterDesignDay
2695,-5.268691670262197
1929,18.00096349832828
3063,6555749.928803414
3064,0.0
2,1, 1,21, 0,16, 0.00,60.00,WinterDesignDay
2695,-5.266854225229301
1929,18.001090790396707
3063,6543103.641639365
3064,0.0
2,1, 1,21, 0,17, 0.00,60.00,WinterDesignDay
2695,-5.268121562159539
1929,18.001149263266158
3063,6600349.924741764
3064,0.0
2,1, 1,21, 0,18, 0.00,60.00,WinterDesignDay
2695,-5.270475441232539
1929,18.00119577694668
3063,6687286.064678908
3064,0.0
2,1, 1,21, 0,19, 0.00,60.00,WinterDesignDay
2695,-5.615722085317881
1929,18.00068383884393
3063,5222321.861157543
3064,0.0
2,1, 1,21, 0,20, 0.00,60.00,WinterDesignDay
2695,-5.631283720567702
1929,18.000359638453238
3063,5398744.13360641
3064,0.0
2,1, 1,21, 0,21, 0.00,60.00,WinterDesignDay
2695,-5.641590355324046
1929,18.00018913503961
3063,4569422.113511587
3064,0.0
2,1, 1,21, 0,22, 0.00,60.00,WinterDesignDay
2695,-5.649600921577348
1929,18.000115413005444
3063,4613233.244328878
3064,0.0
2,1, 1,21, 0,23, 0.00,60.00,WinterDesignDay
2695,-5.6552446163565339
1929,18.000087777469355
3063,4633960.7936620679
3064,0.0
2,1, 1,21, 0,24, 0.00,60.00,WinterDesignDay
2695,-5.659832548329818
1929,18.000075340830354
3063,4647584.931068687
3064,0.0
1,ANN CLG 4% CONDNS DB =>MWB,  29.58, 106.47,   8.00, 259.10
2,1, 7,21, 0, 1, 0.00,60.00,SummerDesignDay
2695,-3.153315153173176
1929,25.99975931897501
3063,0.0
3064,880821.7351138027
2,1, 7,21, 0, 2, 0.00,60.00,SummerDesignDay
2695,-3.1635782756292079
1929,25.99983071433992
3063,0.0
3064,848369.9014805806
2,1, 7,21, 0, 3, 0.00,60.00,SummerDesignDay
2695,-3.171532568643308
1929,25.999879707310965
3063,0.0
3064,821236.1650603635
2,1, 7,21, 0, 4, 0.00,60.00,SummerDesignDay
2695,-3.178008174236593
1929,25.999910387366666
3063,0.0
3064,797861.890623749
2,1, 7,21, 0, 5, 0.00,60.00,SummerDesignDay
2695,-3.1836035514003617
1929,25.999931954534106
3063,0.0
3064,775649.1969052903
2,1, 7,21, 0, 6, 0.00,60.00,SummerDesignDay
2695,-3.188460695438818
1929,25.999961084512845
3063,0.0
3064,750299.0524219207
2,1, 7,21, 0, 7, 0.00,60.00,SummerDesignDay
2695,-3.891842988139263
1929,25.999996554252303
3063,0.0
3064,720193.314449144
2,1, 7,21, 0, 8, 0.00,60.00,SummerDesignDay
2695,-3.8688896467273028
1929,25.999682157367503
3063,0.0
3064,1125136.9027784335
2,1, 7,21, 0, 9, 0.00,60.00,SummerDesignDay
2695,-3.810650170160628
1929,25.99690933516588
3063,0.0
3064,3787255.9310612727
2,1, 7,21, 0,10, 0.00,60.00,SummerDesignDay
2695,-3.660113839563131
1929,26.581797520045244
3063,0.0
3064,6870198.511070887
2,1, 7,21, 0,11, 0.00,60.00,SummerDesignDay
2695,-3.546998851285481
1929,26.985769557289975
3063,0.0
3064,6973297.456953359
2,1, 7,21, 0,12, 0.00,60.00,SummerDesignDay
2695,-3.477143816592996
1929,27.28732703449586
3063,0.0
3064,6913898.9870298369
2,1, 7,21, 0,13, 0.00,60.00,SummerDesignDay
2695,-3.5138018764166007
1929,26.964782964683267
3063,0.0
3064,6569067.035245731
2,1, 7,21, 0,14, 0.00,60.00,SummerDesignDay
2695,-3.5203436888382386
1929,27.02040403234228
3063,0.0
3064,6329981.547578131
2,1, 7,21, 0,15, 0.00,60.00,SummerDesignDay
2695,-3.4102791638767946
1929,27.629777281691834
3063,0.0
3064,6660677.960731045
2,1, 7,21, 0,16, 0.00,60.00,SummerDesignDay
2695,-3.364788664241651
1929,27.676223344895459
3063,0.0
3064,6920680.910777095
2,1, 7,21, 0,17, 0.00,60.00,SummerDesignDay
2695,-3.380396921969538
1929,27.55338513229857
3063,0.0
3064,7013883.064724153
2,1, 7,21, 0,18, 0.00,60.00,SummerDesignDay
2695,-3.407332417660102
1929,27.378992049929044
3063,0.0
3064,7108937.324110575
2,1, 7,21, 0,19, 0.00,60.00,SummerDesignDay
2695,-3.581479797225606
1929,26.047593918376284
3063,0.0
3064,4159881.5641804428
2,1, 7,21, 0,20, 0.00,60.00,SummerDesignDay
2695,-3.691715923312147
1929,25.997022683216387
3063,0.0
3064,3390499.7137892625
2,1, 7,21, 0,21, 0.00,60.00,SummerDesignDay
2695,-3.7257626953519269
1929,25.99858767080004
3063,0.0
3064,1361078.8412287466
2,1, 7,21, 0,22, 0.00,60.00,SummerDesignDay
2695,-3.7777842481670627
1929,25.999173694972204
3063,0.0
3064,1133567.7821525457
2,1, 7,21, 0,23, 0.00,60.00,SummerDesignDay
2695,-3.8091191863230269
1929,25.999475788537699
3063,0.0
3064,1018974.5933613338
2,1, 7,21, 0,24, 0.00,60.00,SummerDesignDay
2695,-3.8296794227521269
1929,25.999659718589887
3063,0.0
3064,948961.9735906806
1,RUN PERIOD 1,  29.58, 106.47,   8.00, 259.10
2,1, 1, 1, 0, 1, 0.00,60.00,Holiday
2695,-6.116369584813689
1929,18.000204103805
3063,1707189.1741906284
3064,0.0
2,1, 1, 1, 0, 2, 0.00,60.00,Holiday
2695,-6.119579930404491
1929,18.000080141998227
3063,1734902.1021816526
3064,0.0
2,1, 1, 1, 0, 3, 0.00,60.00,Holiday
2695,-6.121216350487988
1929,18.000056169619016
3063,1739253.221183768
3064,0.0
2,1, 1, 1, 0, 4, 0.00,60.00,Holiday
2695,-6.123054991706572
1929,18.000074639107557
3063,1738287.4298834326
3064,0.0
2,1, 1, 1, 0, 5, 0.00,60.00,Holiday
2695,-6.126254123283687
1929,18.000128086971498
3063,1733051.4782465106
3064,0.0
2,1, 1, 1, 0, 6, 0.00,60.00,Holiday
2695,-6.133128972613561
1929,18.000164353280686
3063,1673077.3168460953
3064,0.0
2,1, 1, 1, 0, 7, 0.00,60.00,Holiday
2695,-6.539464215287666
1929,18.000123928985365
3063,1719996.624535853
3064,0.0
2,1, 1, 1, 0, 8, 0.00,60.00,Holiday
2695,-6.548653612805175
1929,18.000079929313715
3063,1780291.3028470479
3064,0.0
2,1, 1, 1, 0, 9, 0.00,60.00,Holiday
2695,-6.0548157506582209
1929,18.00004029319037
3063,1839653.5185010075
3064,0.0
2,1, 1, 1, 0,10, 0.00,60.00,Holiday
2695,-6.057650808621646
1929,18.000009017440584
3063,1903314.0034198128
3064,0.0
2,1, 1, 1, 0,11, 0.00,60.00,Holiday
2695,-6.05858341112868
1929,18.000005593579613
3063,1945965.2008377666
3064,0.0
2,1, 1, 1, 0,12, 0.00,60.00,Holiday
2695,-6.059254359602176
1929,18.0000022791525
3063,1967462.9860283402
3064,0.0
2,1, 1, 1, 0,13, 0.00,60.00,Holiday
2695,-6.0600341226006739
1929,18.000000667272916
3063,2009729.4885775264
3064,0.0
2,1, 1, 1, 0,14, 0.00,60.00,Holiday
2695,-6.058823748898249
1929,18.00000055315333
3063,2049588.1849913577
3064,0.0
2,1, 1, 1, 0,15, 0.00,60.00,Holiday
2695,-6.055277685177846
1929,18.000000445893883
3063,2074082.8857705529
3064,0.0
2,1, 1, 1, 0,16, 0.00,60.00,Holiday
2695,-6.049241781058295
1929,18.000000347464874
3063,2085596.0712293313
3064,0.0
2,1, 1, 1, 0,17, 0.00,60.00,Holiday
2695,-6.040632992466023
1929,18.000000271358958
3063,2081572.6483332893
3064,0.0
2,1, 1, 1, 0,18, 0.00,60.00,Holiday
2695,-6.029871447338547
1929,18.00000022395415
3063,2056000.8280210538
3064,0.0
2,1, 1, 1, 0,19, 0.00,60.00,Holiday
2695,-6.511687889988802
1929,18.000000198556376
3063,2006472.1499997935
3064,0.0
2,1, 1, 1, 0,20, 0.00,60.00,Holiday
2695,-6.499046771771897
1929,18.000000202135096
3063,1916694.442751744
3064,0.0
2,1, 1, 1, 0,21, 0.00,60.00,Holiday
2695,-6.4918437021013999
1929,18.000051133997837
3063,1803485.7512152896
3064,0.0
2,1, 1, 1, 0,22, 0.00,60.00,Holiday
2695,-6.4919322943759749
1929,18.000280498895959
3063,1718215.8550327933
3064,0.0
2,1, 1, 1, 0,23, 0.00,60.00,Holiday
2695,-6.497196806125431
1929,18.000374876101814
3063,1679880.3164131619
3064,0.0
2,1, 1, 1, 0,24, 0.00,60.00,Holiday
2695,-6.504530795927789
1929,18.000368264323489
3063,1670598.769304184
3064,0.0
2,2, 1, 2, 0, 1, 0.00,60.00,Holiday
2695,-6.511484498422693
1929,18.000336719700383
3063,1670863.7664476112
3064,0.0
2,2, 1, 2, 0, 2, 0.00,60.00,Holiday
2695,-6.51852913668159
1929,18.000276376845496
3063,1684793.448415153
3064,0.0
2,2, 1, 2, 0, 3, 0.00,60.00,Holiday
2695,-6.524976896565949
1929,18.000201118657555
3063,1707732.0885416582
3064,0.0
2,2, 1, 2, 0, 4, 0.00,60.00,Holiday
2695,-6.530046240728463
1929,18.00014245322767
3063,1730115.7535084205
3064,0.0
2,2, 1, 2, 0, 5, 0.00,60.00,Holiday
2695,-6.534183918810963
1929,18.000103107248177
3063,1752316.202573048
3064,0.0
2,2, 1, 2, 0, 6, 0.00,60.00,Holiday
2695,-6.537794194638667
1929,18.000076873872187
3063,1776287.530824993
3064,0.0
2,2, 1, 2, 0, 7, 0.00,60.00,Holiday
2695,-6.641516845104781
1929,18.000066042317348
3063,1800070.909293618
3064,0.0
2,2, 1, 2, 0, 8, 0.00,60.00,Holiday
2695,-6.644874799335295
1929,18.00005100045127
3063,1829278.465710173
3064,0.0
2,2, 1, 2, 0, 9, 0.00,60.00,Holiday
2695,-6.130678008364403
1929,18.000004906865546
3063,1879236.6431567684
3064,0.0
2,2, 1, 2, 0,10, 0.00,60.00,Holiday
2695,-6.13089947018094
1929,18.000000528198119
3063,1933372.2660015678
3064,0.0
2,2, 1, 2, 0,11, 0.00,60.00,Holiday
2695,-6.129547939951063
1929,18.000000470484946
3063,1957416.2388146388
3064,0.0
2,2, 1, 2, 0,12, 0.00,60.00,Holiday
2695,-6.1285695152390649
1929,18.00000042897067
3063,1976237.1867161706
3064,0.0
2,2, 1, 2, 0,13, 0.00,60.00,Holiday
2695,-6.127682863616383
1929,18.000000396107948
3063,1993285.2456051629
3064,0.0
2,2, 1, 2, 0,14, 0.00,60.00,Holiday
2695,-6.126588974066085
1929,18.000000359502164
3063,2006537.4515824535
3064,0.0
2,2, 1, 2, 0,15, 0.00,60.00,Holiday
2695,-6.124338763672939
1929,18.000000312369808
3063,2021879.0595245418
3064,0.0
2,2, 1, 2, 0,16, 0.00,60.00,Holiday
2695,-6.119748066105828
1929,18.000000268919857
3063,2024832.8005427216
3064,0.0
2,2, 1, 2, 0,17, 0.00,60.00,Holiday
2695,-6.113315798134831
1929,18.00000025558738
3063,1977739.2285068683
3064,0.0
2,2, 1, 2, 0,18, 0.00,60.00,Holiday
2695,-6.107989003145842
1929,18.0000002709606
3063,1901731.1800321846
3064,0.0
2,2, 1, 2, 0,19, 0.00,60.00,Holiday
2695,-6.616875693603222
1929,18.000022142375675
3063,1833502.6600600687
3064,0.0
2,2, 1, 2, 0,20, 0.00,60.00,Holiday
2695,-6.6149879104555089
1929,18.000091330834377
3063,1777295.137267294
3064,0.0
2,2, 1, 2, 0,21, 0.00,60.00,Holiday
2695,-6.614605213052907
1929,18.000089322991088
3063,1747426.4706713996
3064,0.0
2,2, 1, 2, 0,22, 0.00,60.00,Holiday
2695,-6.614089405635561
1929,18.000020463495305
3063,1744578.7569039418
3064,0.0
2,2, 1, 2, 0,23, 0.00,60.00,Holiday
2695,-6.61253233521311
1929,18.00000037214482
3063,1738506.6086997269
3064,0.0
2,2, 1, 2, 0,24, 0.00,60.00,Holiday
2695,-6.611571363757583
1929,18.00004184057561
3063,1714390.0869734805
3064,0.0
2,3, 1, 3, 0, 1, 0.00,60.00,Holiday
2695,-6.613384390228397
1929,18.000111997656118
3063,1697138.4250549225
3064,0.0
2,3, 1, 3, 0, 2, 0.00,60.00,Holiday
2695,-6.617576554429676
1929,18.000203229273145
3063,1677297.7074337868
3064,0.0
2,3, 1, 3, 0, 3, 0.00,60.00,Holiday
2695,-6.6252465860915319
1929,18.00024396691523
3063,1630844.6038344736
3064,0.0
2,3, 1, 3, 0, 4, 0.00,60.00,Holiday
2695,-6.63849723693779
1929,18.000158900151577
3063,1670570.690252994
3064,0.0
2,3, 1, 3, 0, 5, 0.00,60.00,Holiday
2695,-6.648161980525672
1929,18.000082733606737
3063,1746425.4358208662
3064,0.0
2,3, 1, 3, 0, 6, 0.00,60.00,Holiday
2695,-6.6538361964433199
1929,18.00004084244723
3063,1797910.489170249
3064,0.0
2,3, 1, 3, 0, 7, 0.00,60.00,Holiday
2695,-6.559301236077808
1929,18.000007574229774
3063,1866823.3755382403
3064,0.0
2,3, 1, 3, 0, 8, 0.00,60.00,Holiday
2695,-6.559810017858038
1929,18.00000360114275
3063,1891441.544925919
3064,0.0
2,3, 1, 3, 0, 9, 0.00,60.00,Holiday
2695,-6.059939927261902
1929,18.000000701688795
3063,1923129.6144887463
3064,0.0
2,3, 1, 3, 0,10, 0.00,60.00,Holiday
2695,-6.060726666750487
1929,18.000000657853197
3063,1957115.1305537045
3064,0.0
2,3, 1, 3, 0,11, 0.00,60.00,Holiday
2695,-6.061709498482631
1929,18.000000624785966
3063,1992265.4627891656
3064,0.0
2,3, 1, 3, 0,12, 0.00,60.00,Holiday
2695,-6.062643864384566
1929,18.000000594236949
3063,2024395.0834305376
3064,0.0
2,3, 1, 3, 0,13, 0.00,60.00,Holiday
2695,-6.0638343085315749
1929,18.000000572993828
3063,2054941.604142
3064,0.0
2,3, 1, 3, 0,14, 0.00,60.00,Holiday
2695,-6.0650514521392859
1929,18.00000055755564
3063,2085515.8797635744
3064,0.0
2,3, 1, 3, 0,15, 0.00,60.00,Holiday
2695,-6.066112469624525
1929,18.00000054885059
3063,2115566.4175589696
3064,0.0
2,3, 1, 3, 0,16, 0.00,60.00,Holiday
2695,-6.06678080371293
1929,18.000000544511555
3063,2142232.449902649
3064,0.0
2,3, 1, 3, 0,17, 0.00,60.00,Holiday
2695,-6.066946528244777
1929,18.00000053925965
3063,2170700.96854979
3064,0.0
2,3, 1, 3, 0,18, 0.00,60.00,Holiday
2695,-6.066260116179614
1929,18.000000539991459
3063,2191530.81525944
3064,0.0
2,3, 1, 3, 0,19, 0.00,60.00,Holiday
2695,-6.568119173044193
1929,18.000000538162295
3063,2208452.413149908
3064,0.0
2,3, 1, 3, 0,20, 0.00,60.00,Holiday
2695,-6.566044133453469
1929,18.00000054413012
3063,2221425.8212842245
3064,0.0
2,3, 1, 3, 0,21, 0.00,60.00,Holiday
2695,-6.563608463521084
1929,18.000000553015558
3063,2227697.504692458
3064,0.0
2,3, 1, 3, 0,22, 0.00,60.00,Holiday
2695,-6.561359300304448
1929,18.000000563781879
3063,2228616.7721272937
3064,0.0
2,3, 1, 3, 0,23, 0.00,60.00,Holiday
2695,-6.55974016081079
1929,18.000000580135795
3063,2230665.0297081957
3064,0.0
2,3, 1, 3, 0,24, 0.00,60.00,Holiday
2695,-6.5587995058010739
1929,18.00000059696892
3063,2228520.3816822825
3064,0.0
2,4, 1, 4, 0, 1, 0.00,60.00,Wednesday
2695,-6.558856332249817
1929,18.0000006143766
3063,2234919.175913415
3064,0.0
2,4, 1, 4, 0, 2, 0.00,60.00,Wednesday
2695,-6.559183986504659
1929,18.000001907782939
3063,2239306.622337699
3064,0.0
2,4, 1, 4, 0, 3, 0.00,60.00,Wednesday
2695,-6.560033495901106
1929,18.000001370865076
3063,2249035.9630750019
3064,0.0
2,4, 1, 4, 0, 4, 0.00,60.00,Wednesday
2695,-6.560738987483192
1929,18.000000670022158
3063,2262439.319203542
3064,0.0
2,4, 1, 4, 0, 5, 0.00,60.00,Wednesday
2695,-6.561073619784317
1929,18.00000068089391
3063,2278442.172777319
3064,0.0
2,4, 1, 4, 0, 6, 0.00,60.00,Wednesday
2695,-6.5608492353727
1929,18.000000694412937
3063,2289118.9594999996
3064,0.0
2,4, 1, 4, 0, 7, 0.00,60.00,Wednesday
2695,-6.690229343437399
1929,18.000000705865319
3063,2294533.7701834545
3064,0.0
2,4, 1, 4, 0, 8, 0.00,60.00,Wednesday
2695,-6.688682412897896
1929,18.00002530778244
3063,2290853.557098157
3064,0.0
2,4, 1, 4, 0, 9, 0.00,60.00,Wednesday
2695,-6.152137787828927
1929,18.000205490859974
3063,2199992.1421791266
3064,0.0
2,4, 1, 4, 0,10, 0.00,60.00,Wednesday
2695,-6.134641830317702
1929,18.00041996607874
3063,2045380.3040565854
3064,0.0
2,4, 1, 4, 0,11, 0.00,60.00,Wednesday
2695,-6.12864189185376
1929,18.000510058340479
3063,1957917.5555818666
3064,0.0
2,4, 1, 4, 0,12, 0.00,60.00,Wednesday
2695,-6.129586381862295
1929,18.00048931178212
3063,1898078.874854347
3064,0.0
2,4, 1, 4, 0,13, 0.00,60.00,Wednesday
2695,-6.131402686424292
1929,18.000475232892847
3063,1863044.9130756928
3064,0.0
2,4, 1, 4, 0,14, 0.00,60.00,Wednesday
2695,-6.1320117871852279
1929,18.000411156917605
3063,1777923.584335543
3064,0.0
2,4, 1, 4, 0,15, 0.00,60.00,Wednesday
2695,-6.126574703783525
1929,18.000292566910983
3063,1572622.9086213634
3064,0.0
2,4, 1, 4, 0,16, 0.00,60.00,Wednesday
2695,-6.116069581821894
1929,18.000224490584278
3063,1405090.4588676673
3064,0.0
2,4, 1, 4, 0,17, 0.00,60.00,Wednesday
2695,-6.105376899821569
1929,18.00022311541235
3063,1318096.7969343435
3064,0.0
2,4, 1, 4, 0,18, 0.00,60.00,Wednesday
2695,-6.0994739016212808
1929,18.000247339196453
3063,1321007.2422937134
3064,0.0
2,4, 1, 4, 0,19, 0.00,60.00,Wednesday
2695,-6.619134540147968
1929,18.000403177598135
3063,1792647.5590442406
3064,0.0
2,4, 1, 4, 0,20, 0.00,60.00,Wednesday
2695,-6.631294622736202
1929,18.000275153307006
3063,1853726.9507587723
3064,0.0
2,4, 1, 4, 0,21, 0.00,60.00,Wednesday
2695,-6.640027072860801
1929,18.00025535851688
3063,1975451.1090035074
3064,0.0
2,4, 1, 4, 0,22, 0.00,60.00,Wednesday
2695,-6.646796226030726
1929,18.000192487705929
3063,1991385.4143669084
3064,0.0
2,4, 1, 4, 0,23, 0.00,60.00,Wednesday
2695,-6.651882848443314
1929,18.000147752582707
3063,1999241.644934096
3064,0.0
2,4, 1, 4, 0,24, 0.00,60.00,Wednesday
2695,-6.656209684345558
1929,18.000131256883408
3063,2002027.770666584
3064,0.0
2,5, 1, 5, 0, 1, 0.00,60.00,Thursday
2695,-6.660896495239608
1929,18.000118558891129
3063,2008493.5138564616
3064,0.0
2,5, 1, 5, 0, 2, 0.00,60.00,Thursday
2695,-6.665223016724853
1929,18.000112633862178
3063,2016056.9548981535
3064,0.0
2,5, 1, 5, 0, 3, 0.00,60.00,Thursday
2695,-6.669251332815848
1929,18.00012710623663
3063,2020244.777305643
3064,0.0
2,5, 1, 5, 0, 4, 0.00,60.00,Thursday
2695,-6.673876135838204
1929,18.000158480046154
3063,2021880.093691565
3064,0.0
2,5, 1, 5, 0, 5, 0.00,60.00,Thursday
2695,-6.67924675162903
1929,18.00016372604545
3063,2033050.569525745
3064,0.0
2,5, 1, 5, 0, 6, 0.00,60.00,Thursday
2695,-6.6845471566966589
1929,18.00015088723779
3063,2048518.4283492212
3064,0.0
2,5, 1, 5, 0, 7, 0.00,60.00,Thursday
2695,-6.701330627729636
1929,18.000163097743564
3063,2054848.18572982
3064,0.0
2,5, 1, 5, 0, 8, 0.00,60.00,Thursday
2695,-6.705429428071606
1929,18.00015559950523
3063,2067304.3894883572
3064,0.0
2,5, 1, 5, 0, 9, 0.00,60.00,Thursday
2695,-6.170438138566367
1929,18.000226025019747
3063,2000632.3865323899
3064,0.0
2,5, 1, 5, 0,10, 0.00,60.00,Thursday
2695,-6.153036268222095
1929,18.000365698218915
3063,1859134.5112616826
3064,0.0
2,5, 1, 5, 0,11, 0.00,60.00,Thursday
2695,-6.143362998617911
1929,18.0004226426324
3063,1766819.6643004576
3064,0.0
2,5, 1, 5, 0,12, 0.00,60.00,Thursday
2695,-6.139514464539654
1929,18.000415861883409
3063,1704564.310949913
3064,0.0
2,5, 1, 5, 0,13, 0.00,60.00,Thursday
2695,-6.137568972482327
1929,18.000390162212339
3063,1684779.3853303469
3064,0.0
2,5, 1, 5, 0,14, 0.00,60.00,Thursday
2695,-6.133583922731137
1929,18.00036417619939
3063,1621793.2805127307
3064,0.0
2,5, 1, 5, 0,15, 0.00,60.00,Thursday
2695,-6.127979861046971
1929,18.000320284700626
3063,1485910.7022881048
3064,0.0
2,5, 1, 5, 0,16, 0.00,60.00,Thursday
2695,-6.122766324390663
1929,18.000295108462088
3063,1392402.3436117946
3064,0.0
2,5, 1, 5, 0,17, 0.00,60.00,Thursday
2695,-6.118118387746327
1929,18.00026252876032
3063,1299285.4298978404
3064,0.0
2,5, 1, 5, 0,18, 0.00,60.00,Thursday
2695,-6.113669601352147
1929,18.00023716813511
3063,1214350.2952409678
3064,0.0
2,5, 1, 5, 0,19, 0.00,60.00,Thursday
2695,-6.636069101338325
1929,18.000375971819506
3063,1614623.2022710818
3064,0.0
2,5, 1, 5, 0,20, 0.00,60.00,Thursday
2695,-6.648711041862683
1929,18.000259034876995
3063,1652386.5302568433
3064,0.0
2,5, 1, 5, 0,21, 0.00,60.00,Thursday
2695,-6.6580451007822429
1929,18.000267990501013
3063,1822283.25463469
3064,0.0
2,5, 1, 5, 0,22, 0.00,60.00,Thursday
2695,-6.665639210904328
1929,18.00023471999174
3063,1837722.627073285
3064,0.0
2,5, 1, 5, 0,23, 0.00,60.00,Thursday
2695,-6.672162484540162
1929,18.000186615218018
3063,1854489.9300627933
3064,0.0
2,5, 1, 5, 0,24, 0.00,60.00,Thursday
2695,-6.677229549989438
1929,18.00009248034572
3063,1884265.7097979647
3064,0.0
2,6, 1, 6, 0, 1, 0.00,60.00,Friday
2695,-6.6796398600733559
1929,18.000037910370705
3063,1900825.9697307049
3064,0.0
2,6, 1, 6, 0, 2, 0.00,60.00,Friday
2695,-6.68117643322434
1929,18.00000467631239
3063,1919133.3218857544
3064,0.0
2,6, 1, 6, 0, 3, 0.00,60.00,Friday
2695,-6.681659511700786
1929,18.000000503934066
3063,1939362.5288837406
3064,0.0
2,6, 1, 6, 0, 4, 0.00,60.00,Friday
2695,-6.68118898630523
1929,18.000000521628225
3063,1955386.4259698229
3064,0.0
2,6, 1, 6, 0, 5, 0.00,60.00,Friday
2695,-6.6802072631805979
1929,18.00000053310941
3063,1968389.2516437818
3064,0.0
2,6, 1, 6, 0, 6, 0.00,60.00,Friday
2695,-6.67910403764029
1929,18.000000539670667
3063,1981090.2593497046
3064,0.0
2,6, 1, 6, 0, 7, 0.00,60.00,Friday
2695,-6.67535965479535
1929,18.00000054633254
3063,1982612.8075830532
3064,0.0
2,6, 1, 6, 0, 8, 0.00,60.00,Friday
2695,-6.673973234079071
1929,18.00001928451619
3063,1977332.3574856935
3064,0.0
2,6, 1, 6, 0, 9, 0.00,60.00,Friday
2695,-6.1404770286475129
1929,18.000166887265228
3063,1857352.2977953214
3064,0.0
2,6, 1, 6, 0,10, 0.00,60.00,Friday
2695,-6.121222672381268
1929,18.000296922232726
3063,1578667.879902764
3064,0.0
2,6, 1, 6, 0,11, 0.00,60.00,Friday
2695,-6.112320034858694
1929,18.0003061992599
3063,1388074.3005043197
3064,0.0
2,6, 1, 6, 0,12, 0.00,60.00,Friday
2695,-6.109837579925731
1929,18.00023949126363
3063,1222929.6713916036
3064,0.0
2,6, 1, 6, 0,13, 0.00,60.00,Friday
2695,-6.108306126142847
1929,18.000211139406674
3063,1150028.2943132562
3064,0.0
2,6, 1, 6, 0,14, 0.00,60.00,Friday
2695,-6.105184364607631
1929,18.000158598012278
3063,964071.8859057489
3064,0.0
2,6, 1, 6, 0,15, 0.00,60.00,Friday
2695,-6.076735201326507
1929,18.15283271023124
3063,534257.8905717138
3064,0.0
2,6, 1, 6, 0,16, 0.00,60.00,Friday
2695,-6.012155887205402
1929,18.416162173052894
3063,238077.37917450834
3064,0.0
2,6, 1, 6, 0,17, 0.00,60.00,Friday
2695,-5.959558620523375
1929,18.55830853082752
3063,85653.26672711736
3064,0.0
2,6, 1, 6, 0,18, 0.00,60.00,Friday
2695,-5.938176419905678
1929,18.564650165299498
3063,75155.4039005496
3064,0.0
2,6, 1, 6, 0,19, 0.00,60.00,Friday
2695,-6.5047687482240239
1929,18.02409270315238
3063,1011922.1912718848
3064,0.0
2,6, 1, 6, 0,20, 0.00,60.00,Friday
2695,-6.536451906502779
1929,18.000151976862467
3063,1017963.3596339942
3064,0.0
2,6, 1, 6, 0,21, 0.00,60.00,Friday
2695,-6.5407012686211039
1929,18.000233492032604
3063,1298967.9652394017
3064,0.0
2,6, 1, 6, 0,22, 0.00,60.00,Friday
2695,-6.542210567419544
1929,18.000199112291939
3063,1272899.0107365582
3064,0.0
2,6, 1, 6, 0,23, 0.00,60.00,Friday
2695,-6.5438752508636039
1929,18.000189003970538
3063,1249261.4300415468
3064,0.0
2,6, 1, 6, 0,24, 0.00,60.00,Friday
2695,-6.546590125165622
1929,18.000189738285007
3063,1233937.2647995693
3064,0.0
2,7, 1, 7, 0, 1, 0.00,60.00,Saturday
2695,-6.550523541601124
1929,18.000181718670448
3063,1231318.309971075
3064,0.0
2,7, 1, 7, 0, 2, 0.00,60.00,Saturday
2695,-6.555228301720594
1929,18.00018641991934
3063,1232910.0558144965
3064,0.0
2,7, 1, 7, 0, 3, 0.00,60.00,Saturday
2695,-6.560944066392377
1929,18.000203774139015
3063,1237463.9898726738
3064,0.0
2,7, 1, 7, 0, 4, 0.00,60.00,Saturday
2695,-6.568003967994495
1929,18.000227241936054
3063,1245071.9091016309
3064,0.0
2,7, 1, 7, 0, 5, 0.00,60.00,Saturday
2695,-6.576653587030131
1929,18.000257257442553
3063,1232944.4504619507
3064,0.0
2,7, 1, 7, 0, 6, 0.00,60.00,Saturday
2695,-6.592599883237454
1929,18.000230007442196
3063,1187202.3784815537
3064,0.0
2,7, 1, 7, 0, 7, 0.00,60.00,Saturday
2695,-6.405243437360316
1929,18.000159047770855
3063,1266543.5462332159
3064,0.0
2,7, 1, 7, 0, 8, 0.00,60.00,Saturday
2695,-6.41981477131232
1929,18.000098274428316
3063,1346182.9167617216
3064,0.0
2,7, 1, 7, 0, 9, 0.00,60.00,Saturday
2695,-5.953621509596413
1929,18.00006065404357
3063,1410519.0452162678
3064,0.0
2,7, 1, 7, 0,10, 0.00,60.00,Saturday
2695,-5.9600902313858878
1929,18.00004649927128
3063,1461498.6996197727
3064,0.0
2,7, 1, 7, 0,11, 0.00,60.00,Saturday
2695,-5.965681305394308
1929,18.000034283482049
3063,1518121.927845436
3064,0.0
2,7, 1, 7, 0,12, 0.00,60.00,Saturday
2695,-5.9701433914887789
1929,18.000023938505568
3063,1569563.027018512
3064,0.0
2,7, 1, 7, 0,13, 0.00,60.00,Saturday
2695,-5.972963004843422
1929,18.00000189896919
3063,1616404.4925556486
3064,0.0
2,7, 1, 7, 0,14, 0.00,60.00,Saturday
2695,-5.97320174210353
1929,18.0000002187203
3063,1654533.1193151829
3064,0.0
2,7, 1, 7, 0,15, 0.00,60.00,Saturday
2695,-5.969830957991857
1929,18.000000139980388
3063,1678953.8259271852
3064,0.0
2,7, 1, 7, 0,16, 0.00,60.00,Saturday
2695,-5.961781253327518
1929,18.00000009192381
3063,1667507.358256667
3064,0.0
2,7, 1, 7, 0,17, 0.00,60.00,Saturday
2695,-5.95042692313487
1929,18.00000007629927
3063,1586583.8225619205
3064,0.0
2,7, 1, 7, 0,18, 0.00,60.00,Saturday
2695,-5.939258169862186
1929,18.00000007312742
3063,1482573.820185052
3064,0.0
2,7, 1, 7, 0,19, 0.00,60.00,Saturday
2695,-6.4002753646284
1929,18.00000007164724
3063,1387153.8191834498
3064,0.0
2,7, 1, 7, 0,20, 0.00,60.00,Saturday
2695,-6.3884845180919929
1929,18.000000071201879
3063,1306037.1355807489
3064,0.0
2,7, 1, 7, 0,21, 0.00,60.00,Saturday
2695,-6.378056622632701
1929,18.00000007204483
3063,1239429.8580773448
3064,0.0
2,7, 1, 7, 0,22, 0.00,60.00,Saturday
2695,-6.369666531114301
1929,18.000000074308486
3063,1188653.4372332157
3064,0.0
2,7, 1, 7, 0,23, 0.00,60.00,Saturday
2695,-6.363526288502817
1929,18.000000077506646
3063,1152372.9159339364
3064,0.0
2,7, 1, 7, 0,24, 0.00,60.00,Saturday
2695,-6.359685374175463
1929,18.00000241382534
3063,1129068.6397135475
3064,0.0
2,8, 1, 8, 0, 1, 0.00,60.00,Sunday
2695,-6.35785401318925
1929,18.000005725801146
3063,1124336.0319973576
3064,0.0
2,8, 1, 8, 0, 2, 0.00,60.00,Sunday
2695,-6.3572318729843408
1929,18.00000675012494
3063,1130430.7005810894
3064,0.0
2,8, 1, 8, 0, 3, 0.00,60.00,Sunday
2695,-6.357628160782145
1929,18.000012615869399
3063,1142340.831009281
3064,0.0
2,8, 1, 8, 0, 4, 0.00,60.00,Sunday
2695,-6.358975254422493
1929,18.000018669059416
3063,1160716.5785666267
3064,0.0
2,8, 1, 8, 0, 5, 0.00,60.00,Sunday
2695,-6.361105980943935
1929,18.00001779875751
3063,1187029.3773384693
3064,0.0
2,8, 1, 8, 0, 6, 0.00,60.00,Sunday
2695,-6.3637567243252139
1929,18.00002434695646
3063,1214004.635519268
3064,0.0
2,8, 1, 8, 0, 7, 0.00,60.00,Sunday
2695,-6.576120598413652
1929,18.00003487050744
3063,1242702.2415928893
3064,0.0
2,8, 1, 8, 0, 8, 0.00,60.00,Sunday
2695,-6.580133528227496
1929,18.00004157174661
3063,1275314.8864632815
3064,0.0
2,8, 1, 8, 0, 9, 0.00,60.00,Sunday
2695,-6.080211897598679
1929,18.000040674129456
3063,1312823.7296854915
3064,0.0
2,8, 1, 8, 0,10, 0.00,60.00,Sunday
2695,-6.083904644633656
1929,18.000033360372734
3063,1353544.5670137588
3064,0.0
2,8, 1, 8, 0,11, 0.00,60.00,Sunday
2695,-6.087465417984315
1929,18.000011500294446
3063,1399175.9808579947
3064,0.0
2,8, 1, 8, 0,12, 0.00,60.00,Sunday
2695,-6.090557051061913
1929,18.000000147518308
3063,1438617.114833324
3064,0.0
2,8, 1, 8, 0,13, 0.00,60.00,Sunday
2695,-6.093318779877862
1929,18.000003931458364
3063,1467664.9274233795
3064,0.0
2,8, 1, 8, 0,14, 0.00,60.00,Sunday
2695,-6.095593162322743
1929,18.00000095606497
3063,1491375.7600166293
3064,0.0
2,8, 1, 8, 0,15, 0.00,60.00,Sunday
2695,-6.096771979905955
1929,18.000000108438539
3063,1504300.4218128876
3064,0.0
2,8, 1, 8, 0,16, 0.00,60.00,Sunday
2695,-6.0962839045990508
1929,18.00000009781826
3063,1500298.2866619938
3064,0.0
2,8, 1, 8, 0,17, 0.00,60.00,Sunday
2695,-6.093863340618022
1929,18.000000089628445
3063,1475291.7087631347
3064,0.0
2,8, 1, 8, 0,18, 0.00,60.00,Sunday
2695,-6.08983365670264
1929,18.000000085649949
3063,1435421.4326384757
3064,0.0
2,8, 1, 8, 0,19, 0.00,60.00,Sunday
2695,-6.590381579046169
1929,18.000000086584476
3063,1380549.3716405496
3064,0.0
2,8, 1, 8, 0,20, 0.00,60.00,Sunday
2695,-6.584240196666468
1929,18.000000088815928
3063,1326541.703659929
3064,0.0
2,8, 1, 8, 0,21, 0.00,60.00,Sunday
2695,-6.579048592286582
1929,18.000000090206698
3063,1291922.7457864148
3064,0.0
2,8, 1, 8, 0,22, 0.00,60.00,Sunday
2695,-6.574684077882005
1929,18.000000089443334
3063,1279249.3824391552
3064,0.0
2,8, 1, 8, 0,23, 0.00,60.00,Sunday
2695,-6.570860917807064
1929,18.00000009160954
3063,1267474.839921129
3064,0.0
2,8, 1, 8, 0,24, 0.00,60.00,Sunday
2695,-6.568378568148559
1929,18.00000010226286
3063,1254538.5549222306
3064,0.0
2,9, 1, 9, 0, 1, 0.00,60.00,Monday
2695,-6.567975824659784
1929,18.00000259004076
3063,1245968.366237207
3064,0.0
2,9, 1, 9, 0, 2, 0.00,60.00,Monday
2695,-6.569195842218995
1929,18.00001967169373
3063,1250637.2588810428
3064,0.0
2,9, 1, 9, 0, 3, 0.00,60.00,Monday
2695,-6.571253475220616
1929,18.000026337583966
3063,1268876.4857561393
3064,0.0
2,9, 1, 9, 0, 4, 0.00,60.00,Monday
2695,-6.573912138265082
1929,18.000019820952394
3063,1296347.206954156
3064,0.0
2,9, 1, 9, 0, 5, 0.00,60.00,Monday
2695,-6.576795954258231
1929,18.000009080254249