Program Version,EnergyPlus, Version 8.7.0-78a111df4a, YMD=2019.06.21 03:04
1,5,Environment Title[],Latitude[deg],Longitude[deg],Time Zone[],Elevation[m]
2,6,Day of Simulation[],Month[],Day of Month[],DST Indicator[1=yes 0=no],Hour[],StartMinute[],EndMinute[],DayType
3,3,Cumulative Day of Simulation[],Month[],Day of Month[],DST Indicator[1=yes 0=no],DayType  ! When Daily Report Variables Requested
4,2,Cumulative Days of Simulation[],Month[]  ! When Monthly Report Variables Requested
5,1,Cumulative Days of Simulation[] ! When Run Period Report Variables Requested
1929,1,THERMAL ZONE: SPACE 201,Zone Air Temperature [C] !Hourly
2695,1,THERMAL ZONE: SPACE 201 PEOPLE,Zone Thermal Comfort Fanger Model PMV [] !Hourly
3063,1,THERMAL ZONE: SPACE 305 PTHP,Zone Packaged Terminal Heat Pump Total Heating Energy [J] !Hourly
3064,1,THERMAL ZONE: SPACE 305 PTHP,Zone Packaged Terminal Heat Pump Total Cooling Energy [J] !Hourly
End of Data Dictionary
1,ANN HTG 99.6% CONDNS DB,  29.58, 106.47,   8.00, 259.10
2,1, 1,21, 0, 1, 0.00,60.00,WinterDesignDay
2695,-6.49362446703788
1929,18.000065824499968
3063,4651546.271707812
3064,0.0
2,1, 1,21, 0, 2, 0.00,60.00,WinterDesignDay
2695,-6.497537420575905
1929,18.000049761819473
3063,4670605.988669492
3064,0.0
2,1, 1,21, 0, 3, 0.00,60.00,WinterDesignDay
2695,-6.5007974804980519
1929,18.000035740835619
3063,4690395.5154430349
3064,0.0
2,1, 1,21, 0, 4, 0.00,60.00,WinterDesignDay
2695,-6.50365267757207
1929,18.000030299408555
3063,4708127.983839024
3064,0.0
2,1, 1,21, 0, 5, 0.00,60.00,WinterDesignDay
2695,-6.506362558118606
1929,18.00002388957082
3063,4728312.739941566
3064,0.0
2,1, 1,21, 0, 6, 0.00,60.00,WinterDesignDay
2695,-6.508605932848916
1929,17.99999594425155
3063,4758626.39618145
3064,0.0
2,1, 1,21, 0, 7, 0.00,60.00,WinterDesignDay
2695,-5.677241540162222
1929,17.99992764768774
3063,4797688.00878054
3064,0.0
2,1, 1,21, 0, 8, 0.00,60.00,WinterDesignDay
2695,-5.674338285286105
1929,17.999833734337167
3063,5184114.740722495
3064,0.0
2,1, 1,21, 0, 9, 0.00,60.00,WinterDesignDay
2695,-5.319218471801698
1929,18.00009878095524
3063,6309120.230195018
3064,0.0
2,1, 1,21, 0,10, 0.00,60.00,WinterDesignDay
2695,-5.300390496353617
1929,18.00070506844511
3063,7303240.0594496
3064,0.0
2,1, 1,21, 0,11, 0.00,60.00,WinterDesignDay
2695,-5.288494327207243
1929,18.00089895082827
3063,7019894.808607041
3064,0.0
2,1, 1,21, 0,12, 0.00,60.00,WinterDesignDay
2695,-5.280739009209195
1929,18.000925993329635
3063,6833417.984692173
3064,0.0
2,1, 1,21, 0,13, 0.00,60.00,WinterDesignDay
2695,-5.276505027519998
1929,18.000840180236989
3063,6364577.073845641
3064,0.0
2,1, 1,21, 0,14, 0.00,60.00,WinterDesignDay
2695,-5.2728927875856839
1929,18.0008163476368
3063,6291394.420209053
3064,0.0
2,1, 1,21, 0,15, 0.00,60.00,WinterDesignDay
2695,-5.268258414358058
1929,18.000961580210654
3063,6554378.073646216
3064,0.0
2,1, 1,21, 0,16, 0.00,60.00,WinterDesignDay
2695,-5.266431704737875
1929,18.001088698137488
3063,6541783.95050052
3064,0.0
2,1, 1,21, 0,17, 0.00,60.00,WinterDesignDay
2695,-5.267713400110446
1929,18.001147148194517
3063,6599097.439450219
3064,0.0
2,1, 1,21, 0,18, 0.00,60.00,WinterDesignDay
2695,-5.270084219753166
1929,18.00119366147285
3063,6686110.826485397
3064,0.0
2,1, 1,21, 0,19, 0.00,60.00,WinterDesignDay
2695,-5.615255204733244
1929,18.000682523315665
3063,5221222.5554477949
3064,0.0
2,1, 1,21, 0,20, 0.00,60.00,WinterDesignDay
2695,-5.630838851054524
1929,18.000359017392598
3063,5397721.353785867
3064,0.0
2,1, 1,21, 0,21, 0.00,60.00,WinterDesignDay
2695,-5.641166179494092
1929,18.000188764227575
3063,4568468.298285495
3064,0.0
2,1, 1,21, 0,22, 0.00,60.00,WinterDesignDay
2695,-5.6491932437632459
1929,18.000115206556335
3063,4612335.063109193
3064,0.0
2,1, 1,21, 0,23, 0.00,60.00,WinterDesignDay
2695,-5.65484903398059
1929,18.000087623121624
3063,4633102.239191042
3064,0.0
2,1, 1,21, 0,24, 0.00,60.00,WinterDesignDay
2695,-5.659444024536902
1929,18.00007520612296
3063,4646748.42780419
3064,0.0
1,ANN CLG 4% CONDNS DB =>MWB,  29.58, 106.47,   8.00, 259.10
2,1, 7,21, 0, 1, 0.00,60.00,SummerDesignDay
2695,-3.152835195068111
1929,25.99976056935473
3063,0.0
3064,881194.2410610404
2,1, 7,21, 0, 2, 0.00,60.00,SummerDesignDay
2695,-3.1630537130001419
1929,25.999831697380928
3063,0.0
3064,848745.5734720719
2,1, 7,21, 0, 3, 0.00,60.00,SummerDesignDay
2695,-3.170975153138603
1929,25.999880467595447
3063,0.0
3064,821612.4535213958
2,1, 7,21, 0, 4, 0.00,60.00,SummerDesignDay
2695,-3.1774272350972168
1929,25.999910953041753
3063,0.0
3064,798237.3937126695
2,1, 7,21, 0, 5, 0.00,60.00,SummerDesignDay
2695,-3.183006596847918
1929,25.99993237638793
3063,0.0
3064,776022.1143271165
2,1, 7,21, 0, 6, 0.00,60.00,SummerDesignDay
2695,-3.1878523996457877
1929,25.999961467958575
3063,0.0
3064,750666.6038606073
2,1, 7,21, 0, 7, 0.00,60.00,SummerDesignDay
2695,-3.8910217886935745
1929,25.999996695747368
3063,0.0
3064,720553.5809638657
2,1, 7,21, 0, 8, 0.00,60.00,SummerDesignDay
2695,-3.868064309014494
1929,25.999681137457885
3063,0.0
3064,1125520.8644065152
2,1, 7,21, 0, 9, 0.00,60.00,SummerDesignDay
2695,-3.8100222622911699
1929,25.996905423396567
3063,0.0
3064,3787702.1778142938
2,1, 7,21, 0,10, 0.00,60.00,SummerDesignDay
2695,-3.6597067738967019
1929,26.580208545424488
3063,0.0
3064,6870773.5677485
2,1, 7,21, 0,11, 0.00,60.00,SummerDesignDay
2695,-3.546793166714999
1929,26.983027503002665
3063,0.0
3064,6973851.355759203
2,1, 7,21, 0,12, 0.00,60.00,SummerDesignDay
2695,-3.4768769556518106
1929,27.284245418247314
3063,0.0
3064,6914425.339783248
2,1, 7,21, 0,13, 0.00,60.00,SummerDesignDay
2695,-3.513634642457927
1929,26.96217853719719
3063,0.0
3064,6569582.188676659
2,1, 7,21, 0,14, 0.00,60.00,SummerDesignDay
2695,-3.520115085068543
1929,27.017965727320275
3063,0.0
3064,6330509.703221666
2,1, 7,21, 0,15, 0.00,60.00,SummerDesignDay
2695,-3.4101168005188589
1929,27.626994376867918
3063,0.0
3064,6661192.618136424
2,1, 7,21, 0,16, 0.00,60.00,SummerDesignDay
2695,-3.3645999941562034
1929,27.673370979181049
3063,0.0
3064,6921188.054965634
2,1, 7,21, 0,17, 0.00,60.00,SummerDesignDay
2695,-3.380204059230915
1929,27.5506638046989
3063,0.0
3064,7014413.515461273
2,1, 7,21, 0,18, 0.00,60.00,SummerDesignDay
2695,-3.4071484503601856
1929,27.37602175014828
3063,0.0
3064,7109477.638020698
2,1, 7,21, 0,19, 0.00,60.00,SummerDesignDay
2695,-3.5808248651456795
1929,26.04738285836446
3063,0.0
3064,4160484.4766562606
2,1, 7,21, 0,20, 0.00,60.00,SummerDesignDay
2695,-3.6909501549522956
1929,25.997017945372578
3063,0.0
3064,3390999.698024436
2,1, 7,21, 0,21, 0.00,60.00,SummerDesignDay
2695,-3.7250838907141725
1929,25.998582364604123
3063,0.0
3064,1361594.3513621204
2,1, 7,21, 0,22, 0.00,60.00,SummerDesignDay
2695,-3.7772028680560445
1929,25.999172412748199
3063,0.0
3064,1133985.9706076554
2,1, 7,21, 0,23, 0.00,60.00,SummerDesignDay
2695,-3.808536636991994
1929,25.999476145448559
3063,0.0
3064,1019353.2076486772
2,1, 7,21, 0,24, 0.00,60.00,SummerDesignDay
2695,-3.8290492019069175
1929,25.999661199783984
3063,0.0
3064,949328.8207173342
1,RUN PERIOD 1,  29.58, 106.47,   8.00, 259.10
2,1, 1, 1, 0, 1, 0.00,60.00,Holiday
2695,-6.123538422894605
1929,18.000205847154438
3063,1698083.8873344996
3064,0.0
2,1, 1, 1, 0, 2, 0.00,60.00,Holiday
2695,-6.126725809785337
1929,18.00007740720049
3063,1725369.8569933084
3064,0.0
2,1, 1, 1, 0, 3, 0.00,60.00,Holiday
2695,-6.12822911789119
1929,18.000053634730788
3063,1729631.8872003209
3064,0.0
2,1, 1, 1, 0, 4, 0.00,60.00,Holiday
2695,-6.1299133865859469
1929,18.000073625506265
3063,1728730.259075822
3064,0.0
2,1, 1, 1, 0, 5, 0.00,60.00,Holiday
2695,-6.132976628624028
1929,18.000129139943593
3063,1723657.7202878614
3064,0.0
2,1, 1, 1, 0, 6, 0.00,60.00,Holiday
2695,-6.139739765525846
1929,18.000165849676468
3063,1663885.8089379608
3064,0.0
2,1, 1, 1, 0, 7, 0.00,60.00,Holiday
2695,-6.546288313137423
1929,18.00012408108434
3063,1710640.8568869492
3064,0.0
2,1, 1, 1, 0, 8, 0.00,60.00,Holiday
2695,-6.555229434190358
1929,18.000079432993695
3063,1771312.008221746
3064,0.0
2,1, 1, 1, 0, 9, 0.00,60.00,Holiday
2695,-6.059893755079667
1929,18.000039542661555
3063,1830940.7886496052
3064,0.0
2,1, 1, 1, 0,10, 0.00,60.00,Holiday
2695,-6.062525185792681
1929,18.00000859855567
3063,1894789.6246408013
3064,0.0
2,1, 1, 1, 0,11, 0.00,60.00,Holiday
2695,-6.063270886010312
1929,18.000005516475736
3063,1937695.548281424
3064,0.0
2,1, 1, 1, 0,12, 0.00,60.00,Holiday
2695,-6.063778733203527
1929,18.00000229599442
3063,1959440.9728969155
3064,0.0
2,1, 1, 1, 0,13, 0.00,60.00,Holiday
2695,-6.064404618116853
1929,18.00000069511427
3063,2001887.0103989526
3064,0.0
2,1, 1, 1, 0,14, 0.00,60.00,Holiday
2695,-6.063022944091507
1929,18.000000576019148
3063,2042053.6093941779
3064,0.0
2,1, 1, 1, 0,15, 0.00,60.00,Holiday
2695,-6.059315845361876
1929,18.00000046437702
3063,2067050.0942832083
3064,0.0
2,1, 1, 1, 0,16, 0.00,60.00,Holiday
2695,-6.053152737785592
1929,18.000000362175645
3063,2079313.7103776627
3064,0.0
2,1, 1, 1, 0,17, 0.00,60.00,Holiday
2695,-6.044468129145407
1929,18.000000283322277
3063,2076285.6653958259
3064,0.0
2,1, 1, 1, 0,18, 0.00,60.00,Holiday
2695,-6.033692408391876
1929,18.000000234397779
3063,2051689.0358116809
3064,0.0
2,1, 1, 1, 0,19, 0.00,60.00,Holiday
2695,-6.516559138397644
1929,18.00000020846586
3063,2002753.5070546515
3064,0.0
2,1, 1, 1, 0,20, 0.00,60.00,Holiday
2695,-6.504151267102865
1929,18.0000002129796
3063,1912825.743057435
3064,0.0
2,1, 1, 1, 0,21, 0.00,60.00,Holiday
2695,-6.497420573024887
1929,18.00005752177935
3063,1798723.6687105417
3064,0.0
2,1, 1, 1, 0,22, 0.00,60.00,Holiday
2695,-6.498154659550091
1929,18.00029636987252
3063,1712192.8070014516
3064,0.0
2,1, 1, 1, 0,23, 0.00,60.00,Holiday
2695,-6.504055650511032
1929,18.00038949970339
3063,1672648.896397609
3064,0.0
2,1, 1, 1, 0,24, 0.00,60.00,Holiday
2695,-6.511865589507252
1929,18.000378620138418
3063,1662349.1798913209
3064,0.0
2,2, 1, 2, 0, 1, 0.00,60.00,Holiday
2695,-6.519106162144525
1929,18.000343071492425
3063,1661939.7375210822
3064,0.0
2,2, 1, 2, 0, 2, 0.00,60.00,Holiday
2695,-6.526269381511408
1929,18.00027879005359
3063,1675430.225325422
3064,0.0
2,2, 1, 2, 0, 3, 0.00,60.00,Holiday
2695,-6.53268006524781
1929,18.000200296690406
3063,1698130.6118457076
3064,0.0
2,2, 1, 2, 0, 4, 0.00,60.00,Holiday
2695,-6.5376008237848259
1929,18.00014001377988
3063,1720462.4244923052
3064,0.0
2,2, 1, 2, 0, 5, 0.00,60.00,Holiday
2695,-6.541528691030965
1929,18.000100240493479
3063,1742737.208610532
3064,0.0
2,2, 1, 2, 0, 6, 0.00,60.00,Holiday
2695,-6.544900257452355
1929,18.000074174047144
3063,1766866.1507525338
3064,0.0
2,2, 1, 2, 0, 7, 0.00,60.00,Holiday
2695,-6.64847684084874
1929,18.000063959025814
3063,1790876.5863363126
3064,0.0
2,2, 1, 2, 0, 8, 0.00,60.00,Holiday
2695,-6.651590330520382
1929,18.0000491961137
3063,1820324.7429770644
3064,0.0
2,2, 1, 2, 0, 9, 0.00,60.00,Holiday
2695,-6.1358709999261669
1929,18.00000416447463
3063,1870467.3560965723
3064,0.0
2,2, 1, 2, 0,10, 0.00,60.00,Holiday
2695,-6.135848632039681
1929,18.00000055435237
3063,1924816.5684574487
3064,0.0
2,2, 1, 2, 0,11, 0.00,60.00,Holiday
2695,-6.13424547261494
1929,18.000000493074269
3063,1949193.1698373573
3064,0.0
2,2, 1, 2, 0,12, 0.00,60.00,Holiday
2695,-6.133064991088571
1929,18.00000044887268
3063,1968374.5607698812
3064,0.0
2,2, 1, 2, 0,13, 0.00,60.00,Holiday
2695,-6.13200116945455
1929,18.00000041383682
3063,1985775.7587679993
3064,0.0
2,2, 1, 2, 0,14, 0.00,60.00,Holiday
2695,-6.1307517321397919
1929,18.000000375113314
3063,1999470.153711322
3064,0.0
2,2, 1, 2, 0,15, 0.00,60.00,Holiday
2695,-6.128356251478363
1929,18.000000325697447
3063,2015439.92244728
3064,0.0
2,2, 1, 2, 0,16, 0.00,60.00,Holiday
2695,-6.123643373882082
1929,18.000000280397854
3063,2019276.479802349
3064,0.0
2,2, 1, 2, 0,17, 0.00,60.00,Holiday
2695,-6.117156305022493
1929,18.00000026667092
3063,1973302.2958632149
3064,0.0
2,2, 1, 2, 0,18, 0.00,60.00,Holiday
2695,-6.111904631802286
1929,18.000000283072056
3063,1898345.4730203124
3064,0.0
2,2, 1, 2, 0,19, 0.00,60.00,Holiday
2695,-6.6219999218496279
1929,18.00002498058991
3063,1830796.5452781092
3064,0.0
2,2, 1, 2, 0,20, 0.00,60.00,Holiday
2695,-6.620441617444771
1929,18.000095924856195
3063,1774677.2017651629
3064,0.0
2,2, 1, 2, 0,21, 0.00,60.00,Holiday
2695,-6.620449839300481
1929,18.000092585471625
3063,1744180.0665191676
3064,0.0
2,2, 1, 2, 0,22, 0.00,60.00,Holiday
2695,-6.620269772787945
1929,18.000021005722496
3063,1740319.0332621227
3064,0.0
2,2, 1, 2, 0,23, 0.00,60.00,Holiday
2695,-6.618913326152143
1929,18.000000393757245
3063,1733259.6407051474
3064,0.0
2,2, 1, 2, 0,24, 0.00,60.00,Holiday
2695,-6.618068503545037
1929,18.000043252191735
3063,1708472.6199500263
3064,0.0
2,3, 1, 3, 0, 1, 0.00,60.00,Holiday
2695,-6.619981576039457
1929,18.00011511518386
3063,1690756.683591908
3064,0.0
2,3, 1, 3, 0, 2, 0.00,60.00,Holiday
2695,-6.624249488027199
1929,18.000208143367563
3063,1670674.6846022784
3064,0.0
2,3, 1, 3, 0, 3, 0.00,60.00,Holiday
2695,-6.631990569386566
1929,18.000248201120614
3063,1624121.5823014454
3064,0.0
2,3, 1, 3, 0, 4, 0.00,60.00,Holiday
2695,-6.645189970444044
1929,18.000159270522798
3063,1663624.3597178627
3064,0.0
2,3, 1, 3, 0, 5, 0.00,60.00,Holiday
2695,-6.654630080802337
1929,18.00008176524302
3063,1739461.9744618857
3064,0.0
2,3, 1, 3, 0, 6, 0.00,60.00,Holiday
2695,-6.6600536127220348
1929,18.000039954151977
3063,1791059.2803369363
3064,0.0
2,3, 1, 3, 0, 7, 0.00,60.00,Holiday
2695,-6.565191399082508
1929,18.00000740449767
3063,1859993.9716329314
3064,0.0
2,3, 1, 3, 0, 8, 0.00,60.00,Holiday
2695,-6.565469644640527
1929,18.00000362756458
3063,1884875.8625049962
3064,0.0
2,3, 1, 3, 0, 9, 0.00,60.00,Holiday
2695,-6.0643338173851089
1929,18.00000073192986
3063,1916772.8741562302
3064,0.0
2,3, 1, 3, 0,10, 0.00,60.00,Holiday
2695,-6.064964051256058
1929,18.00000068515166
3063,1951011.2769404343
3064,0.0
2,3, 1, 3, 0,11, 0.00,60.00,Holiday
2695,-6.065801420890854
1929,18.00000064966633
3063,1986401.007070031
3064,0.0
2,3, 1, 3, 0,12, 0.00,60.00,Holiday
2695,-6.066594657595956
1929,18.000000616931169
3063,2018770.086829884
3064,0.0
2,3, 1, 3, 0,13, 0.00,60.00,Holiday
2695,-6.067655561553612
1929,18.000000593932496
3063,2049541.842498955
3064,0.0
2,3, 1, 3, 0,14, 0.00,60.00,Holiday
2695,-6.068744814662755
1929,18.000000577022499
3063,2080294.037703213
3064,0.0
2,3, 1, 3, 0,15, 0.00,60.00,Holiday
2695,-6.069681271633463
1929,18.000000567144239
3063,2110571.031342378
3064,0.0
2,3, 1, 3, 0,16, 0.00,60.00,Holiday
2695,-6.07022057215649
1929,18.000000561819303
3063,2137449.0321944139
3064,0.0
2,3, 1, 3, 0,17, 0.00,60.00,Holiday
2695,-6.070254279795642
1929,18.000000555614375
3063,2166114.487300541
3064,0.0
2,3, 1, 3, 0,18, 0.00,60.00,Holiday
2695,-6.069430349522477
1929,18.000000555590476
3063,2187149.4217420767
3064,0.0
2,3, 1, 3, 0,19, 0.00,60.00,Holiday
2695,-6.571906613949121
1929,18.000000552997166
3063,2204265.019161382
3064,0.0
2,3, 1, 3, 0,20, 0.00,60.00,Holiday
2695,-6.56967628546206
1929,18.000000558428597
3063,2217418.1440403417
3064,0.0
2,3, 1, 3, 0,21, 0.00,60.00,Holiday
2695,-6.567093033229611
1929,18.00000056686555
3063,2223863.7179701237
3064,0.0
2,3, 1, 3, 0,22, 0.00,60.00,Holiday
2695,-6.564710557689725
1929,18.00000057722809
3063,2224936.6023313326
3064,0.0
2,3, 1, 3, 0,23, 0.00,60.00,Holiday
2695,-6.562973213085388
1929,18.000000593289454
3063,2227103.6766771466
3064,0.0
2,3, 1, 3, 0,24, 0.00,60.00,Holiday
2695,-6.561925393201704
1929,18.000000609833309
3063,2225067.4223428878
3064,0.0
2,4, 1, 4, 0, 1, 0.00,60.00,Wednesday
2695,-6.561885200516659
1929,18.000000626954145
3063,2231562.2071146506
3064,0.0
2,4, 1, 4, 0, 2, 0.00,60.00,Wednesday
2695,-6.562114060007045
1929,18.000002144022205
3063,2236064.1856784385
3064,0.0
2,4, 1, 4, 0, 3, 0.00,60.00,Wednesday
2695,-6.562867521292131
1929,18.000001578629793
3063,2245899.363173067
3064,0.0
2,4, 1, 4, 0, 4, 0.00,60.00,Wednesday
2695,-6.563473808522691
1929,18.000000681725166
3063,2259399.476119844
3064,0.0
2,4, 1, 4, 0, 5, 0.00,60.00,Wednesday
2695,-6.563707185329548
1929,18.000000692200755
3063,2275486.7558572629
3064,0.0
2,4, 1, 4, 0, 6, 0.00,60.00,Wednesday
2695,-6.563377136730515
1929,18.00000070534976
3063,2286218.521767488
3064,0.0
2,4, 1, 4, 0, 7, 0.00,60.00,Wednesday
2695,-6.6927085872608329
1929,18.000000716422805
3063,2291698.8073184269
3064,0.0
2,4, 1, 4, 0, 8, 0.00,60.00,Wednesday
2695,-6.691080332311909
1929,18.000025673420624
3063,2288115.8013082335
3064,0.0
2,4, 1, 4, 0, 9, 0.00,60.00,Wednesday
2695,-6.154020554224591
1929,18.000207129140557
3063,2197387.598732855
3064,0.0
2,4, 1, 4, 0,10, 0.00,60.00,Wednesday
2695,-6.136495319879889
1929,18.000423229646967
3063,2042941.1133753039
3064,0.0
2,4, 1, 4, 0,11, 0.00,60.00,Wednesday
2695,-6.130445943733258
1929,18.00051415081407
3063,1955598.8009344922
3064,0.0
2,4, 1, 4, 0,12, 0.00,60.00,Wednesday
2695,-6.131334678273228
1929,18.000493368060508
3063,1895824.6710851263
3064,0.0
2,4, 1, 4, 0,13, 0.00,60.00,Wednesday
2695,-6.13309179851845
1929,18.00047916522929
3063,1860838.0181417138
3064,0.0
2,4, 1, 4, 0,14, 0.00,60.00,Wednesday
2695,-6.133635115491022
1929,18.000414803693393
3063,1775758.2774732102
3064,0.0
2,4, 1, 4, 0,15, 0.00,60.00,Wednesday
2695,-6.128125088250308
1929,18.000296049622788
3063,1570526.1948287278
3064,0.0
2,4, 1, 4, 0,16, 0.00,60.00,Wednesday
2695,-6.117556778520779
1929,18.000228018129975
3063,1403053.2091395315
3064,0.0
2,4, 1, 4, 0,17, 0.00,60.00,Wednesday
2695,-6.106817959420394
1929,18.000227042331063
3063,1316086.1873711807
3064,0.0
2,4, 1, 4, 0,18, 0.00,60.00,Wednesday
2695,-6.100874427851756
1929,18.000251303474525
3063,1318975.6319387758
3064,0.0
2,4, 1, 4, 0,19, 0.00,60.00,Wednesday
2695,-6.620828066955494
1929,18.000405668378119
3063,1790520.986536825
3064,0.0
2,4, 1, 4, 0,20, 0.00,60.00,Wednesday
2695,-6.632927527310014
1929,18.000276373007613
3063,1851533.2451334405
3064,0.0
2,4, 1, 4, 0,21, 0.00,60.00,Wednesday
2695,-6.641600199654172
1929,18.00025600575054
3063,1973241.077802741
3064,0.0
2,4, 1, 4, 0,22, 0.00,60.00,Wednesday
2695,-6.648324282819406
1929,18.000192568783978
3063,1989157.5515232543
3064,0.0
2,4, 1, 4, 0,23, 0.00,60.00,Wednesday
2695,-6.653359520795291
1929,18.000147570835769
3063,1997028.5575406166
3064,0.0
2,4, 1, 4, 0,24, 0.00,60.00,Wednesday
2695,-6.657632699929031
1929,18.000131048909006
3063,1999867.6555865815
3064,0.0
2,5, 1, 5, 0, 1, 0.00,60.00,Thursday
2695,-6.662264357461656
1929,18.000118350314908
3063,2006413.1410873477
3064,0.0
2,5, 1, 5, 0, 2, 0.00,60.00,Thursday
2695,-6.6665348939293909
1929,18.00011245992493
3063,2014075.534712755
3064,0.0
2,5, 1, 5, 0, 3, 0.00,60.00,Thursday
2695,-6.670508026546618
1929,18.000127043261114
3063,2018361.9104880267
3064,0.0
2,5, 1, 5, 0, 4, 0.00,60.00,Thursday
2695,-6.675079739437824
1929,18.00015855259429
3063,2020084.9815425398
3064,0.0
2,5, 1, 5, 0, 5, 0.00,60.00,Thursday
2695,-6.680399569390061
1929,18.000163779544616
3063,2031329.411730114
3064,0.0
2,5, 1, 5, 0, 6, 0.00,60.00,Thursday
2695,-6.685649569100925
1929,18.000150869962775
3063,2046870.4077620405
3064,0.0
2,5, 1, 5, 0, 7, 0.00,60.00,Thursday
2695,-6.70238619176727
1929,18.000163125176063
3063,2053280.118981716
3064,0.0
2,5, 1, 5, 0, 8, 0.00,60.00,Thursday
2695,-6.706438954105885
1929,18.00015562605584
3063,2065806.0451271237
3064,0.0
2,5, 1, 5, 0, 9, 0.00,60.00,Thursday
2695,-6.1712105659365099
1929,18.000226421200308
3063,1999230.6480213339
3064,0.0
2,5, 1, 5, 0,10, 0.00,60.00,Thursday
2695,-6.153774678811729
1929,18.000366709558464
3063,1857841.7613311255
3064,0.0
2,5, 1, 5, 0,11, 0.00,60.00,Thursday
2695,-6.144070266929421
1929,18.00042392818416
3063,1765605.5905610049
3064,0.0
2,5, 1, 5, 0,12, 0.00,60.00,Thursday
2695,-6.140192599356304
1929,18.000417172955989
3063,1703413.4234797224
3064,0.0
2,5, 1, 5, 0,13, 0.00,60.00,Thursday
2695,-6.138220263695637
1929,18.000391359347593
3063,1683691.6742985845
3064,0.0
2,5, 1, 5, 0,14, 0.00,60.00,Thursday
2695,-6.134212306147918
1929,18.00036535641102
3063,1620785.956849451
3064,0.0
2,5, 1, 5, 0,15, 0.00,60.00,Thursday
2695,-6.12859063906055
1929,18.00032157200963
3063,1484976.7143896898
3064,0.0
2,5, 1, 5, 0,16, 0.00,60.00,Thursday
2695,-6.1233629744328399
1929,18.00029648172861
3063,1391518.9712420358
3064,0.0
2,5, 1, 5, 0,17, 0.00,60.00,Thursday
2695,-6.1186983646582109
1929,18.000263943538085
3063,1298475.1860564359
3064,0.0
2,5, 1, 5, 0,18, 0.00,60.00,Thursday
2695,-6.1142284953590579
1929,18.00023861845721
3063,1213693.5991414395
3064,0.0
2,5, 1, 5, 0,19, 0.00,60.00,Thursday
2695,-6.636739182803169
1929,18.000376840021948
3063,1614172.4074064
3064,0.0
2,5, 1, 5, 0,20, 0.00,60.00,Thursday
2695,-6.649357661692661
1929,18.000259510659377
3063,1652136.1107386277
3064,0.0
2,5, 1, 5, 0,21, 0.00,60.00,Thursday
2695,-6.658675347669738
1929,18.000268256356475
3063,1822167.5290301385
3064,0.0
2,5, 1, 5, 0,22, 0.00,60.00,Thursday
2695,-6.666261892991975
1929,18.0002348571705
3063,1837656.3651178606
3064,0.0
2,5, 1, 5, 0,23, 0.00,60.00,Thursday
2695,-6.672777930222549
1929,18.000186639741526
3063,1854413.0607463592
3064,0.0
2,5, 1, 5, 0,24, 0.00,60.00,Thursday
2695,-6.677835135594358
1929,18.00009234505764
3063,1884151.8176983784
3064,0.0
2,6, 1, 6, 0, 1, 0.00,60.00,Friday
2695,-6.680230818602687
1929,18.000037733758246
3063,1900677.6666419353
3064,0.0
2,6, 1, 6, 0, 2, 0.00,60.00,Friday
2695,-6.681750108631203
1929,18.00000461675428
3063,1918958.7221210935
3064,0.0
2,6, 1, 6, 0, 3, 0.00,60.00,Friday
2695,-6.682213440578987
1929,18.00000050529454
3063,1939169.629419618
3064,0.0
2,6, 1, 6, 0, 4, 0.00,60.00,Friday
2695,-6.6817229754958229
1929,18.0000005229399
3063,1955183.2839830374
3064,0.0
2,6, 1, 6, 0, 5, 0.00,60.00,Friday
2695,-6.680722113829995
1929,18.000000534359005
3063,1968179.664180381
3064,0.0
2,6, 1, 6, 0, 6, 0.00,60.00,Friday
2695,-6.679601071203362
1929,18.000000540850797
3063,1980872.5237183148
3064,0.0
2,6, 1, 6, 0, 7, 0.00,60.00,Friday
2695,-6.675839740367965
1929,18.00000054744216
3063,1982391.520774383
3064,0.0
2,6, 1, 6, 0, 8, 0.00,60.00,Friday
2695,-6.674437949575534
1929,18.00001933081216
3063,1977121.9143767332
3064,0.0
2,6, 1, 6, 0, 9, 0.00,60.00,Friday
2695,-6.140840558831574
1929,18.00016709622756
3063,1857170.8772889828
3064,0.0
2,6, 1, 6, 0,10, 0.00,60.00,Friday
2695,-6.121578663862131
1929,18.000297435505723
3063,1578523.494010499
3064,0.0
2,6, 1, 6, 0,11, 0.00,60.00,Friday
2695,-6.112642792714095
1929,18.000306850630893
3063,1388263.2681347789
3064,0.0
2,6, 1, 6, 0,12, 0.00,60.00,Friday
2695,-6.109970681271174
1929,18.000239602099805
3063,1225431.381056691
3064,0.0
2,6, 1, 6, 0,13, 0.00,60.00,Friday
2695,-6.108005063709389
1929,18.000209683473224
3063,1158058.7358354813
3064,0.0
2,6, 1, 6, 0,14, 0.00,60.00,Friday
2695,-6.1043456975867189
1929,18.000181122563324
3063,979275.7465231655
3064,0.0
2,6, 1, 6, 0,15, 0.00,60.00,Friday
2695,-6.074382679564575
1929,18.16122472508177
3063,556527.1921790651
3064,0.0
2,6, 1, 6, 0,16, 0.00,60.00,Friday
2695,-6.010093541659118
1929,18.422608806780734
3063,267786.80632444898
3064,0.0
2,6, 1, 6, 0,17, 0.00,60.00,Friday
2695,-5.961007394086266
1929,18.55247124920942
3063,123279.60443113552
3064,0.0
2,6, 1, 6, 0,18, 0.00,60.00,Friday
2695,-5.945214496708484
1929,18.540212889166314
3063,119906.95558499612
3064,0.0
2,6, 1, 6, 0,19, 0.00,60.00,Friday
2695,-6.514206226394447
1929,18.02115389556949
3063,1063336.6638751385
3064,0.0
2,6, 1, 6, 0,20, 0.00,60.00,Friday
2695,-6.547238386108329
1929,18.000172474763834
3063,1072472.5129543194
3064,0.0
2,6, 1, 6, 0,21, 0.00,60.00,Friday
2695,-6.5545582662099559
1929,18.000251551138825
3063,1352238.3730297699
3064,0.0
2,6, 1, 6, 0,22, 0.00,60.00,Friday
2695,-6.5589712202903149
1929,18.00021446344908
3063,1322375.5870558543
3064,0.0
2,6, 1, 6, 0,23, 0.00,60.00,Friday
2695,-6.562989490145433
1929,18.000203368955864
3063,1294155.097403559
3064,0.0
2,6, 1, 6, 0,24, 0.00,60.00,Friday
2695,-6.567508497029134
1929,18.00020345269162
3063,1274736.6340379813
3064,0.0
2,7, 1, 7, 0, 1, 0.00,60.00,Saturday
2695,-6.5727395898256779
1929,18.00019255087798
3063,1268895.2453088386
3064,0.0
2,7, 1, 7, 0, 2, 0.00,60.00,Saturday
2695,-6.578299503613486
1929,18.000196163705565
3063,1267823.7523926646
3064,0.0
2,7, 1, 7, 0, 3, 0.00,60.00,Saturday
2695,-6.584576647285527
1929,18.00021390550312
3063,1270200.691147801
3064,0.0
2,7, 1, 7, 0, 4, 0.00,60.00,Saturday
2695,-6.591994165428681
1929,18.000237948527077
3063,1276035.4949545572
3064,0.0
2,7, 1, 7, 0, 5, 0.00,60.00,Saturday
2695,-6.6008634891492579
1929,18.00026862854273
3063,1262352.8460396848
3064,0.0
2,7, 1, 7, 0, 6, 0.00,60.00,Saturday
2695,-6.616802911430728
1929,18.000233179094456
3063,1215767.7103749328
3064,0.0
2,7, 1, 7, 0, 7, 0.00,60.00,Saturday
2695,-6.427940884331122
1929,18.000154641957598
3063,1294277.6848421689
3064,0.0
2,7, 1, 7, 0, 8, 0.00,60.00,Saturday
2695,-6.44129586618553
1929,18.000092197388644
3063,1373229.5407523304
3064,0.0
2,7, 1, 7, 0, 9, 0.00,60.00,Saturday
2695,-5.969983768246164
1929,18.000056472555224
3063,1436220.9128180724
3064,0.0
2,7, 1, 7, 0,10, 0.00,60.00,Saturday
2695,-5.975748892722031
1929,18.000044941821498
3063,1486573.4931488264
3064,0.0
2,7, 1, 7, 0,11, 0.00,60.00,Saturday
2695,-5.980786337456678
1929,18.000033324501158
3063,1542466.190403947
3064,0.0
2,7, 1, 7, 0,12, 0.00,60.00,Saturday
2695,-5.984627308872017
1929,18.00002289314345
3063,1595151.0726983869
3064,0.0
2,7, 1, 7, 0,13, 0.00,60.00,Saturday
2695,-5.986631934750487
1929,18.00000153291143
3063,1647118.8358035354
3064,0.0
2,7, 1, 7, 0,14, 0.00,60.00,Saturday
2695,-5.985819054650759
1929,18.000000260832825
3063,1694694.6561081878
3064,0.0
2,7, 1, 7, 0,15, 0.00,60.00,Saturday
2695,-5.981537256513967
1929,18.000000166266003
3063,1731950.5906434607
3064,0.0
2,7, 1, 7, 0,16, 0.00,60.00,Saturday
2695,-5.973296052220484
1929,18.000000110383494
3063,1735689.9923855649
3064,0.0
2,7, 1, 7, 0,17, 0.00,60.00,Saturday
2695,-5.962805160862377
1929,18.000000094542935
3063,1668172.9922832209
3064,0.0
2,7, 1, 7, 0,18, 0.00,60.00,Saturday
2695,-5.953719435608256
1929,18.00000009532296
3063,1573187.5070582703
3064,0.0
2,7, 1, 7, 0,19, 0.00,60.00,Saturday
2695,-6.422229219093946
1929,18.000000100082294
3063,1480473.1699418217
3064,0.0
2,7, 1, 7, 0,20, 0.00,60.00,Saturday
2695,-6.414845107515838
1929,18.000000107680394
3063,1395846.7189107647
3064,0.0
2,7, 1, 7, 0,21, 0.00,60.00,Saturday
2695,-6.408801323080483
1929,18.00000011813619
3063,1321078.0157024854
3064,0.0
2,7, 1, 7, 0,22, 0.00,60.00,Saturday
2695,-6.404280400331746
1929,18.00000013087467
3063,1260851.5553086349
3064,0.0
2,7, 1, 7, 0,23, 0.00,60.00,Saturday
2695,-6.401220692961701
1929,18.000000144287676
3063,1216078.3923069884
3064,0.0
2,7, 1, 7, 0,24, 0.00,60.00,Saturday
2695,-6.399746936019189
1929,18.00002048756576
3063,1185970.7139188674
3064,0.0
2,8, 1, 8, 0, 1, 0.00,60.00,Sunday
2695,-6.399664497637871
1929,18.000027278979194
3063,1176338.4316822093
3064,0.0
2,8, 1, 8, 0, 2, 0.00,60.00,Sunday
2695,-6.400119279438385
1929,18.00002415100613
3063,1178698.3320698385
3064,0.0
2,8, 1, 8, 0, 3, 0.00,60.00,Sunday
2695,-6.401083416126302
1929,18.000028561756456
3063,1187617.1057252426
3064,0.0
2,8, 1, 8, 0, 4, 0.00,60.00,Sunday
2695,-6.402633060764786
1929,18.00003333698822
3063,1203605.920215921
3064,0.0
2,8, 1, 8, 0, 5, 0.00,60.00,Sunday
2695,-6.404667889885919
1929,18.000028417333735
3063,1228029.758538769
3064,0.0
2,8, 1, 8, 0, 6, 0.00,60.00,Sunday
2695,-6.406944344102723
1929,18.000034678752429
3063,1253358.8524176987
3064,0.0
2,8, 1, 8, 0, 7, 0.00,60.00,Sunday
2695,-6.620217047636796
1929,18.000045916295876
3063,1280622.5223363543
3064,0.0
2,8, 1, 8, 0, 8, 0.00,60.00,Sunday
2695,-6.62359852196274
1929,18.000051382788116
3063,1312023.4194556697
3064,0.0
2,8, 1, 8, 0, 9, 0.00,60.00,Sunday
2695,-6.1145267005928
1929,18.000046739553619
3063,1348498.316033494
3064,0.0
2,8, 1, 8, 0,10, 0.00,60.00,Sunday
2695,-6.117470754712209
1929,18.000034742523359
3063,1388263.2937171355
3064,0.0
2,8, 1, 8, 0,11, 0.00,60.00,Sunday
2695,-6.120136706412294
1929,18.000007839438088
3063,1433049.7459718094
3064,0.0
2,8, 1, 8, 0,12, 0.00,60.00,Sunday
2695,-6.122170868110729
1929,18.000000238830969
3063,1471587.7912016679
3064,0.0
2,8, 1, 8, 0,13, 0.00,60.00,Sunday
2695,-6.123859922404733
1929,18.00000110309516
3063,1500235.6986089792
3064,0.0
2,8, 1, 8, 0,14, 0.00,60.00,Sunday
2695,-6.1250900537986949
1929,18.000000205504418
3063,1524728.3173002047
3064,0.0
2,8, 1, 8, 0,15, 0.00,60.00,Sunday
2695,-6.12531283408516
1929,18.000000166504586
3063,1539749.207550053
3064,0.0
2,8, 1, 8, 0,16, 0.00,60.00,Sunday
2695,-6.124194733789721
1929,18.00000014955311
3063,1539197.066477721
3064,0.0
2,8, 1, 8, 0,17, 0.00,60.00,Sunday
2695,-6.1217296425276219
1929,18.00000013841498
3063,1518245.509310828
3064,0.0
2,8, 1, 8, 0,18, 0.00,60.00,Sunday
2695,-6.118372310321647
1929,18.000000135671568
3063,1481171.234576721
3064,0.0
2,8, 1, 8, 0,19, 0.00,60.00,Sunday
2695,-6.627661736783771
1929,18.000000142589845
3063,1425390.409099988
3064,0.0
2,8, 1, 8, 0,20, 0.00,60.00,Sunday
2695,-6.623898486778663
1929,18.000000153273665
3063,1366687.26606479
3064,0.0
2,8, 1, 8, 0,21, 0.00,60.00,Sunday
2695,-6.621077340955246
1929,18.000000162801127
3063,1325918.0030464363
3064,0.0
2,8, 1, 8, 0,22, 0.00,60.00,Sunday
2695,-6.618387118504953
1929,18.00000016717137
3063,1307465.2230180505
3064,0.0
2,8, 1, 8, 0,23, 0.00,60.00,Sunday
2695,-6.615301611920345
1929,18.00000017487875
3063,1290639.4463469028
3064,0.0
2,8, 1, 8, 0,24, 0.00,60.00,Sunday
2695,-6.61311408316702
1929,18.00000019643485
3063,1273635.2804538855
3064,0.0
2,9, 1, 9, 0, 1, 0.00,60.00,Monday
2695,-6.612898586221898
1929,18.0000129315607
3063,1262051.0195153005
3064,0.0
2,9, 1, 9, 0, 2, 0.00,60.00,Monday
2695,-6.614312784430509
1929,18.000043075111635
3063,1264613.9461926516
3064,0.0
2,9, 1, 9, 0, 3, 0.00,60.00,Monday
2695,-6.61636622162007
1929,18.000046052810285
3063,1281365.0231470948
3064,0.0
2,9, 1, 9, 0, 4, 0.00,60.00,Monday
2695,-6.6186941685898239
1929,18.00003179375545
3063,1307702.0809455158
3064,0.0
2,9, 1, 9, 0, 5, 0.00,60.00,Monday
2695,-6.620906375310665
1929,18.000014058071799