Program Version,EnergyPlus, Version 8.7.0-78a111df4a, YMD=2019.05.28 05:48
1,5,Environment Title[],Latitude[deg],Longitude[deg],Time Zone[],Elevation[m]
2,6,Day of Simulation[],Month[],Day of Month[],DST Indicator[1=yes 0=no],Hour[],StartMinute[],EndMinute[],DayType
3,3,Cumulative Day of Simulation[],Month[],Day of Month[],DST Indicator[1=yes 0=no],DayType  ! When Daily Report Variables Requested
4,2,Cumulative Days of Simulation[],Month[]  ! When Monthly Report Variables Requested
5,1,Cumulative Days of Simulation[] ! When Run Period Report Variables Requested
4826,1,BEDROOM2.2,Zone Ideal Loads Zone Total Heating Energy [J] !Hourly
4827,1,BEDROOM2.2,Zone Ideal Loads Zone Total Cooling Energy [J] !Hourly
4973,1,BEDROOM2.2,Zone Thermal Comfort Fanger Model PMV [] !Hourly
End of Data Dictionary
1,RUNPERIOD,  29.58, 106.47,   8.00, 259.10
2,1, 1, 1, 0, 1, 0.00,60.00,Thursday
4973,-1.0512742550548123
4826,2242827.255538459
4827,7.333545165072958e-8
2,1, 1, 1, 0, 2, 0.00,60.00,Thursday
4973,-1.04429548450592
4826,2256276.964056132
4827,2.404476617812179e-8
2,1, 1, 1, 0, 3, 0.00,60.00,Thursday
4973,-1.0369460201763104
4826,2196034.898131945
4827,8.66634763951879e-8
2,1, 1, 1, 0, 4, 0.00,60.00,Thursday
4973,-1.0306978007854595
4826,2166336.706175973
4827,1.1971224012086169e-7
2,1, 1, 1, 0, 5, 0.00,60.00,Thursday
4973,-1.0276962956446694
4826,2185760.185070746
4827,9.546283763484098e-8
2,1, 1, 1, 0, 6, 0.00,60.00,Thursday
4973,-1.0277593664511813
4826,2210397.2208731474
4827,5.637730282614939e-8
2,1, 1, 1, 0, 7, 0.00,60.00,Thursday
4973,-1.0299292368546005
4826,2230039.014785367
4827,2.31239027925767e-8
2,1, 1, 1, 0, 8, 0.00,60.00,Thursday
4973,-1.6412226921711604
4826,0.0
4827,0.0
2,1, 1, 1, 0, 9, 0.00,60.00,Thursday
4973,-2.0223496857224578
4826,0.0
4827,0.0
2,1, 1, 1, 0,10, 0.00,60.00,Thursday
4973,-2.0580329159276045
4826,0.0
4827,0.0
2,1, 1, 1, 0,11, 0.00,60.00,Thursday
4973,-2.06139047883795
4826,0.0
4827,0.0
2,1, 1, 1, 0,12, 0.00,60.00,Thursday
4973,-2.053327116536805
4826,0.0
4827,0.0
2,1, 1, 1, 0,13, 0.00,60.00,Thursday
4973,-2.0324294141364125
4826,0.0
4827,0.0
2,1, 1, 1, 0,14, 0.00,60.00,Thursday
4973,-1.9941054253730535
4826,0.0
4827,0.0
2,1, 1, 1, 0,15, 0.00,60.00,Thursday
4973,-1.9468353819225342
4826,0.0
4827,0.0
2,1, 1, 1, 0,16, 0.00,60.00,Thursday
4973,-1.887194327441986
4826,0.0
4827,0.0
2,1, 1, 1, 0,17, 0.00,60.00,Thursday
4973,-1.8194742766011638
4826,0.0
4827,0.0
2,1, 1, 1, 0,18, 0.00,60.00,Thursday
4973,-1.7606023436431993
4826,0.0
4827,0.0
2,1, 1, 1, 0,19, 0.00,60.00,Thursday
4973,-1.7157621196853888
4826,0.0
4827,0.0
2,1, 1, 1, 0,20, 0.00,60.00,Thursday
4973,-1.691387819372579
4826,0.0
4827,0.0
2,1, 1, 1, 0,21, 0.00,60.00,Thursday
4973,-1.7320101421369203
4826,0.0
4827,0.0
2,1, 1, 1, 0,22, 0.00,60.00,Thursday
4973,-1.233443209400646
4826,2828539.0783863908
4827,3.280320015619509e-8
2,1, 1, 1, 0,23, 0.00,60.00,Thursday
4973,-1.058937711359139
4826,2113318.883005051
4827,2.8342128643998877e-8
2,1, 1, 1, 0,24, 0.00,60.00,Thursday
4973,-1.0554576968676375
4826,2017874.5821661934
4827,8.011511454242282e-8
2,2, 1, 2, 0, 1, 0.00,60.00,Friday
4973,-1.0536128046232479
4826,2214753.908935364
4827,8.240580097084273e-8
2,2, 1, 2, 0, 2, 0.00,60.00,Friday
4973,-1.0522839905333764
4826,2216953.212393668
4827,5.064748620497994e-8
2,2, 1, 2, 0, 3, 0.00,60.00,Friday
4973,-1.0515315112459605
4826,2222666.8103385039
4827,2.4454038793919609e-8
2,2, 1, 2, 0, 4, 0.00,60.00,Friday
4973,-1.048573142718853
4826,2219465.5307516
4827,2.956994649139233e-8
2,2, 1, 2, 0, 5, 0.00,60.00,Friday
4973,-1.0447194748421854
4826,2208826.1259767247
4827,9.198402040055953e-8
2,2, 1, 2, 0, 6, 0.00,60.00,Friday
4973,-1.0408112022003025
4826,2201749.528361327
4827,3.304876372567378e-8
2,2, 1, 2, 0, 7, 0.00,60.00,Friday
4973,-1.0369638945679192
4826,2190271.2313726667
4827,1.1152678780490533e-8
2,2, 1, 2, 0, 8, 0.00,60.00,Friday
4973,-1.6086289182298868
4826,0.0
4827,0.0
2,2, 1, 2, 0, 9, 0.00,60.00,Friday
4973,-1.9317326634602495
4826,0.0
4827,0.0
2,2, 1, 2, 0,10, 0.00,60.00,Friday
4973,-1.9200987326968058
4826,0.0
4827,0.0
2,2, 1, 2, 0,11, 0.00,60.00,Friday
4973,-1.899895439281702
4826,0.0
4827,0.0
2,2, 1, 2, 0,12, 0.00,60.00,Friday
4973,-1.8835003702748597
4826,0.0
4827,0.0
2,2, 1, 2, 0,13, 0.00,60.00,Friday
4973,-1.8660310163679897
4826,0.0
4827,0.0
2,2, 1, 2, 0,14, 0.00,60.00,Friday
4973,-1.8485511197303986
4826,0.0
4827,0.0
2,2, 1, 2, 0,15, 0.00,60.00,Friday
4973,-1.8202001397334955
4826,0.0
4827,0.0
2,2, 1, 2, 0,16, 0.00,60.00,Friday
4973,-1.7853824959962837
4826,0.0
4827,0.0
2,2, 1, 2, 0,17, 0.00,60.00,Friday
4973,-1.764799006201112
4826,0.0
4827,0.0
2,2, 1, 2, 0,18, 0.00,60.00,Friday
4973,-1.7877825359536366
4826,0.0
4827,0.0
2,2, 1, 2, 0,19, 0.00,60.00,Friday
4973,-1.8319668041968214
4826,0.0
4827,0.0
2,2, 1, 2, 0,20, 0.00,60.00,Friday
4973,-1.860063268343857
4826,0.0
4827,0.0
2,2, 1, 2, 0,21, 0.00,60.00,Friday
4973,-1.8886363019908488
4826,0.0
4827,0.0
2,2, 1, 2, 0,22, 0.00,60.00,Friday
4973,-1.2822146245927058
4826,3106047.764548596
4827,9.932023203873541e-8
2,2, 1, 2, 0,23, 0.00,60.00,Friday
4973,-1.067568147882164
4826,2150581.7687065575
4827,0.0
2,2, 1, 2, 0,24, 0.00,60.00,Friday
4973,-1.0509135588706303
4826,2040375.0574370996
4827,3.489049049676396e-8
2,3, 1, 3, 0, 1, 0.00,60.00,Saturday
4973,-1.0443452025109355
4826,2249690.303468612
4827,6.7082882279382e-8
2,3, 1, 3, 0, 2, 0.00,60.00,Saturday
4973,-1.0423133823180964
4826,2285840.9507682404
4827,1.017042450257577e-7
2,3, 1, 3, 0, 3, 0.00,60.00,Saturday
4973,-1.0449546722315622
4826,2301035.5765543386
4827,4.84988049720414e-8
2,3, 1, 3, 0, 4, 0.00,60.00,Saturday
4973,-1.0470262068468986
4826,2300394.2426142527
4827,4.51223058917094e-8
2,3, 1, 3, 0, 5, 0.00,60.00,Saturday
4973,-1.0472554359393172
4826,2288074.495526227
4827,8.338929546880536e-8
2,3, 1, 3, 0, 6, 0.00,60.00,Saturday
4973,-1.0459430507722659
4826,2261302.937474568
4827,4.2871306504821408e-8
2,3, 1, 3, 0, 7, 0.00,60.00,Saturday
4973,-1.042592240721635
4826,2215156.1876314447
4827,6.200480129336938e-8
2,3, 1, 3, 0, 8, 0.00,60.00,Saturday
4973,-1.0373488040873256
4826,2164629.790276358
4827,5.978108674753457e-8
2,3, 1, 3, 0, 9, 0.00,60.00,Saturday
4973,-1.0328656466826265
4826,2166619.804533075
4827,7.141807145671919e-8
2,3, 1, 3, 0,10, 0.00,60.00,Saturday
4973,-1.0278637677373884
4826,2112629.3580616938
4827,4.5633896661456677e-8
2,3, 1, 3, 0,11, 0.00,60.00,Saturday
4973,-1.0236473431597904
4826,2118691.614825346
4827,3.335571818752214e-8
2,3, 1, 3, 0,12, 0.00,60.00,Saturday
4973,-1.0203097498095289
4826,2073353.5285255393
4827,9.617906471248716e-9
2,3, 1, 3, 0,13, 0.00,60.00,Saturday
4973,-1.016291512319974
4826,2031709.1774317804
4827,4.7475623432546857e-8
2,3, 1, 3, 0,14, 0.00,60.00,Saturday
4973,-1.0121402732717702
4826,1993912.4732115926
4827,1.0231815394945443e-9
2,3, 1, 3, 0,15, 0.00,60.00,Saturday
4973,-1.0073872780218026
4826,1925571.520916697
4827,4.594085112330504e-8
2,3, 1, 3, 0,16, 0.00,60.00,Saturday
4973,-1.0010684083879958
4826,1907395.4891022763
4827,5.4433257901109758e-8
2,3, 1, 3, 0,17, 0.00,60.00,Saturday
4973,-0.9962926231881091
4826,1936957.8503721003
4827,5.65819391340483e-8
2,3, 1, 3, 0,18, 0.00,60.00,Saturday
4973,-0.9922288627283853
4826,1921093.6562563766
4827,1.9031176634598525e-8
2,3, 1, 3, 0,19, 0.00,60.00,Saturday
4973,-0.9860794208584272
4826,1889454.9532237589
4827,1.4529177860822529e-8
2,3, 1, 3, 0,20, 0.00,60.00,Saturday
4973,-0.9791603371698979
4826,1749320.015981368
4827,1.000159954855917e-8
2,3, 1, 3, 0,21, 0.00,60.00,Saturday
4973,-0.9714755155786927
4826,1679770.7934994309
4827,1.7035972632584163e-8
2,3, 1, 3, 0,22, 0.00,60.00,Saturday
4973,-0.9636734567698466
4826,1653868.5393245388
4827,6.630216375924647e-8
2,3, 1, 3, 0,23, 0.00,60.00,Saturday
4973,-0.9576017552135321
4826,1642874.1775307134
4827,2.3737811716273428e-8
2,3, 1, 3, 0,24, 0.00,60.00,Saturday
4973,-0.9517637219296211
4826,1577682.568140225
4827,8.860752132022754e-8
2,4, 1, 4, 0, 1, 0.00,60.00,Sunday
4973,-0.9483970154339259
4826,1715194.561071612
4827,5.874863507764871
2,4, 1, 4, 0, 2, 0.00,60.00,Sunday
4973,-0.9443413434485247
4826,1716665.12059113
4827,1.6626700016786346e-8
2,4, 1, 4, 0, 3, 0.00,60.00,Sunday
4973,-0.9414147601985393
4826,1699038.3627364059
4827,4.9828940973384309e-8
2,4, 1, 4, 0, 4, 0.00,60.00,Sunday
4973,-0.9384571020267112
4826,1686674.8365353873
4827,1.7189449863508345e-8
2,4, 1, 4, 0, 5, 0.00,60.00,Sunday
4973,-0.9350849672234057
4826,1678015.8511972982
4827,1.1812630873464514e-7
2,4, 1, 4, 0, 6, 0.00,60.00,Sunday
4973,-0.9315897147522796
4826,1674514.1727737555
4827,1.6831336324685254e-8
2,4, 1, 4, 0, 7, 0.00,60.00,Sunday
4973,-0.9285434160277583
4826,1669943.3432589709
4827,7.152038961066865e-8
2,4, 1, 4, 0, 8, 0.00,60.00,Sunday
4973,-0.9259752125222666
4826,1659038.554844622
4827,7.52737605580478e-8
2,4, 1, 4, 0, 9, 0.00,60.00,Sunday
4973,-0.9253462880271923
4826,1697525.8206864906
4827,8.784013516560663e-8
2,4, 1, 4, 0,10, 0.00,60.00,Sunday
4973,-0.9248343562706516
4826,1667636.1005384345
4827,2.353317540837452e-9
2,4, 1, 4, 0,11, 0.00,60.00,Sunday
4973,-0.9244534944448928
4826,1693656.3671209284
4827,2.7421265258453788e-8
2,4, 1, 4, 0,12, 0.00,60.00,Sunday
4973,-0.9260768276454745
4826,1656678.441728825
4827,4.998241820430849e-8
2,4, 1, 4, 0,13, 0.00,60.00,Sunday
4973,-0.9261117960212687
4826,1610510.6102489629
4827,3.8983216654742139e-8
2,4, 1, 4, 0,14, 0.00,60.00,Sunday
4973,-0.925656497671802
4826,1552695.8028962126
4827,7.566427484562155e-8
2,4, 1, 4, 0,15, 0.00,60.00,Sunday
4973,-0.9222660317343906
4826,1443899.4799268288
4827,4.9828940973384309e-8
2,4, 1, 4, 0,16, 0.00,60.00,Sunday
4973,-0.9143379266072749
4826,1391009.3533738489
4827,1.4171064321999438e-8
2,4, 1, 4, 0,17, 0.00,60.00,Sunday
4973,-0.9065289967879318
4826,1426728.6914335048
4827,2.7318947104504333e-8
2,4, 1, 4, 0,18, 0.00,60.00,Sunday
4973,-0.9029090140285958
4826,1441503.8020399139
4827,4.113189788768068e-8
2,4, 1, 4, 0,19, 0.00,60.00,Sunday
4973,-0.9000499726850347
4826,1459159.095033025
4827,4.1234216041630137e-8
2,4, 1, 4, 0,20, 0.00,60.00,Sunday
4973,-0.8968095755432703
4826,1366010.449580834
4827,4.844764589506667e-8
2,4, 1, 4, 0,21, 0.00,60.00,Sunday
4973,-0.8951473661589586
4826,1335677.5811234774
4827,5.228457666817121e-8
2,4, 1, 4, 0,22, 0.00,60.00,Sunday
4973,-0.8934959481322743
4826,1334228.9354242376
4827,1.3812950783176348e-9
2,4, 1, 4, 0,23, 0.00,60.00,Sunday
4973,-0.891645420458756
4826,1331287.006315528
4827,3.5350922189536507e-8
2,4, 1, 4, 0,24, 0.00,60.00,Sunday
4973,-0.8896489676197725
4826,1267116.4021147215
4827,7.341327545873355e-8
2,5, 1, 5, 0, 1, 0.00,60.00,Monday
4973,-0.8900077581978039
4826,1402354.5583584265
4827,4.2551846490823667e-8
2,5, 1, 5, 0, 2, 0.00,60.00,Monday
4973,-0.889363858857155
4826,1398241.607657181
4827,2.112869879056234e-8
2,5, 1, 5, 0, 3, 0.00,60.00,Monday
4973,-0.8896524084789569
4826,1414124.1581090214
4827,6.379536898748484e-8
2,5, 1, 5, 0, 4, 0.00,60.00,Monday
4973,-0.8917678404492272
4826,1433102.359867827
4827,3.652758095995523e-8
2,5, 1, 5, 0, 5, 0.00,60.00,Monday
4973,-0.8950490860562269
4826,1446016.848774033
4827,3.2946445571724328e-8
2,5, 1, 5, 0, 6, 0.00,60.00,Monday
4973,-0.8980271379366345
4826,1460438.792023643
4827,4.368985173641704e-8
2,5, 1, 5, 0, 7, 0.00,60.00,Monday
4973,-0.9007941736897714
4826,1475460.258274539
4827,4.2155079427175227e-8
2,5, 1, 5, 0, 8, 0.00,60.00,Monday
4973,-1.3992187610573548
4826,0.0
4827,0.0
2,5, 1, 5, 0, 9, 0.00,60.00,Monday
4973,-1.6707242595244805
4826,0.0
4827,0.0
2,5, 1, 5, 0,10, 0.00,60.00,Monday
4973,-1.6903628301582039
4826,0.0
4827,0.0
2,5, 1, 5, 0,11, 0.00,60.00,Monday
4973,-1.6999800424791954
4826,0.0
4827,0.0
2,5, 1, 5, 0,12, 0.00,60.00,Monday
4973,-1.7067561107688612
4826,0.0
4827,0.0
2,5, 1, 5, 0,13, 0.00,60.00,Monday
4973,-1.708859160481388
4826,0.0
4827,0.0
2,5, 1, 5, 0,14, 0.00,60.00,Monday
4973,-1.7039736474295682
4826,0.0
4827,0.0
2,5, 1, 5, 0,15, 0.00,60.00,Monday
4973,-1.6973279011897984
4826,0.0
4827,0.0
2,5, 1, 5, 0,16, 0.00,60.00,Monday
4973,-1.68949001576655
4826,0.0
4827,0.0
2,5, 1, 5, 0,17, 0.00,60.00,Monday
4973,-1.6866551158969308
4826,0.0
4827,0.0
2,5, 1, 5, 0,18, 0.00,60.00,Monday
4973,-1.6859962208328284
4826,0.0
4827,0.0
2,5, 1, 5, 0,19, 0.00,60.00,Monday
4973,-1.6885616747297697
4826,0.0
4827,0.0
2,5, 1, 5, 0,20, 0.00,60.00,Monday
4973,-1.6817975282456328
4826,0.0
4827,0.0
2,5, 1, 5, 0,21, 0.00,60.00,Monday
4973,-1.6966764006754
4826,0.0
4827,0.0
2,5, 1, 5, 0,22, 0.00,60.00,Monday
4973,-1.1788033401973484
4826,2508678.4795177818
4827,5.439233063952997e-8
2,5, 1, 5, 0,23, 0.00,60.00,Monday
4973,-0.9981805185180595
4826,1707036.2742992738
4827,2.204956217610743e-8
2,5, 1, 5, 0,24, 0.00,60.00,Monday
4973,-0.9868825790291825
4826,1601868.7846462653
4827,7.008793545537628e-9
2,6, 1, 6, 0, 1, 0.00,60.00,Tuesday
4973,-0.9783985901550611
4826,1792281.00068591
4827,5.24284390536252
2,6, 1, 6, 0, 2, 0.00,60.00,Tuesday
4973,-0.9713750511386248
4826,1793381.9934028837
4827,2.2305357560981066e-8
2,6, 1, 6, 0, 3, 0.00,60.00,Tuesday
4973,-0.9638627138502303
4826,1752379.7298054179
4827,5.4228621593210849e-8
2,6, 1, 6, 0, 4, 0.00,60.00,Tuesday
4973,-0.9567577658149571
4826,1724522.600616756
4827,6.12885742157232e-8
2,6, 1, 6, 0, 5, 0.00,60.00,Tuesday
4973,-0.9502296542354811
4826,1713358.589129877
4827,6.338609637168702e-8
2,6, 1, 6, 0, 6, 0.00,60.00,Tuesday
4973,-0.9441089652091078
4826,1698131.8619809398
4827,3.8625103115919049e-8
2,6, 1, 6, 0, 7, 0.00,60.00,Tuesday
4973,-0.9390425894955459
4826,1684793.4271807487
4827,3.248601387895178e-8
2,6, 1, 6, 0, 8, 0.00,60.00,Tuesday
4973,-1.4372042549577118
4826,0.0
4827,0.0
2,6, 1, 6, 0, 9, 0.00,60.00,Tuesday
4973,-1.718570357594813
4826,0.0
4827,0.0
2,6, 1, 6, 0,10, 0.00,60.00,Tuesday
4973,-1.7166054995025453
4826,0.0
4827,0.0
2,6, 1, 6, 0,11, 0.00,60.00,Tuesday
4973,-1.6982905266193125
4826,0.0
4827,0.0
2,6, 1, 6, 0,12, 0.00,60.00,Tuesday
4973,-1.6759475699940064
4826,0.0
4827,0.0
2,6, 1, 6, 0,13, 0.00,60.00,Tuesday
4973,-1.6444796521236152
4826,0.0
4827,0.0
2,6, 1, 6, 0,14, 0.00,60.00,Tuesday
4973,-1.5955317288235687
4826,0.0
4827,0.0
2,6, 1, 6, 0,15, 0.00,60.00,Tuesday
4973,-1.5510519434009665
4826,0.0
4827,0.0
2,6, 1, 6, 0,16, 0.00,60.00,Tuesday
4973,-1.4975795015654119
4826,0.0
4827,0.0
2,6, 1, 6, 0,17, 0.00,60.00,Tuesday
4973,-1.4623994828702434
4826,0.0
4827,0.0
2,6, 1, 6, 0,18, 0.00,60.00,Tuesday
4973,-1.469398705604699
4826,0.0
4827,0.0
2,6, 1, 6, 0,19, 0.00,60.00,Tuesday
4973,-1.5046935815059666
4826,0.0
4827,0.0
2,6, 1, 6, 0,20, 0.00,60.00,Tuesday
4973,-1.5304936042628888
4826,0.0
4827,0.0
2,6, 1, 6, 0,21, 0.00,60.00,Tuesday
4973,-1.5639734599690252
4826,0.0
4827,0.0
2,6, 1, 6, 0,22, 0.00,60.00,Tuesday
4973,-1.1115991926538407
4826,2232803.9554244226
4827,3.865920916723553e-8
2,6, 1, 6, 0,23, 0.00,60.00,Tuesday
4973,-0.9542224615985846
4826,1565335.1252800863
4827,6.476739145000465e-8
2,6, 1, 6, 0,24, 0.00,60.00,Tuesday
4973,-0.9452161113322202
4826,1476964.5082578615
4827,6.584173206647393e-8
2,7, 1, 7, 0, 1, 0.00,60.00,Wednesday
4973,-0.9416574641031921
4826,1680856.4156240123
4827,5.5179936810288516e-8
2,7, 1, 7, 0, 2, 0.00,60.00,Wednesday
4973,-0.9401479949113442
4826,1702421.6477972693
4827,6.619984560529702e-8
2,7, 1, 7, 0, 3, 0.00,60.00,Wednesday
4973,-0.9407489124106476
4826,1737952.561747699
4827,5.218225851422176e-9
2,7, 1, 7, 0, 4, 0.00,60.00,Wednesday
4973,-0.9431168398081653
4826,1789554.6844090208
4827,2.9621105568367058e-8
2,7, 1, 7, 0, 5, 0.00,60.00,Wednesday
4973,-0.9475904982677467
4826,1856686.9574305115
4827,8.461711331619881e-8
2,7, 1, 7, 0, 6, 0.00,60.00,Wednesday
4973,-0.9537337508112339
4826,1921084.8873075555
4827,7.182734407251701e-8
2,7, 1, 7, 0, 7, 0.00,60.00,Wednesday
4973,-0.9598366327649162
4826,1973304.7889532666
4827,2.9774582799291239e-8
2,7, 1, 7, 0, 8, 0.00,60.00,Wednesday
4973,-1.5867161422177836
4826,0.0
4827,0.0
2,7, 1, 7, 0, 9, 0.00,60.00,Wednesday
4973,-1.9211895017972203
4826,0.0
4827,0.0
2,7, 1, 7, 0,10, 0.00,60.00,Wednesday
4973,-1.944102183784157
4826,0.0
4827,0.0
2,7, 1, 7, 0,11, 0.00,60.00,Wednesday
4973,-1.942372606513504
4826,0.0
4827,0.0
2,7, 1, 7, 0,12, 0.00,60.00,Wednesday
4973,-1.9178308108332867
4826,0.0
4827,0.0
2,7, 1, 7, 0,13, 0.00,60.00,Wednesday
4973,-1.8638867875872936
4826,0.0
4827,0.0
2,7, 1, 7, 0,14, 0.00,60.00,Wednesday
4973,-1.7814715412878047
4826,0.0
4827,0.0
2,7, 1, 7, 0,15, 0.00,60.00,Wednesday
4973,-1.6784768738990313
4826,0.0
4827,0.0
2,7, 1, 7, 0,16, 0.00,60.00,Wednesday
4973,-1.5527111243198447
4826,0.0
4827,0.0
2,7, 1, 7, 0,17, 0.00,60.00,Wednesday
4973,-1.4742053325749605
4826,0.0
4827,0.0
2,7, 1, 7, 0,18, 0.00,60.00,Wednesday
4973,-1.4866034882363224
4826,0.0
4827,0.0
2,7, 1, 7, 0,19, 0.00,60.00,Wednesday
4973,-1.5196654244466459
4826,0.0
4827,0.0
2,7, 1, 7, 0,20, 0.00,60.00,Wednesday
4973,-1.5438220703758166
4826,0.0
4827,0.0
2,7, 1, 7, 0,21, 0.00,60.00,Wednesday
4973,-1.569557770686036
4826,0.0
4827,0.0
2,7, 1, 7, 0,22, 0.00,60.00,Wednesday
4973,-1.1356492660753506
4826,2173141.686080927
4827,6.348159331537318e-8
2,7, 1, 7, 0,23, 0.00,60.00,Wednesday
4973,-0.9864636405970202
4826,1561368.1203464119
4827,3.8676262192893776e-8
2,7, 1, 7, 0,24, 0.00,60.00,Wednesday
4973,-0.9769225781136142
4826,1478019.7713826057
4827,4.169464773440268e-8
2,8, 1, 8, 0, 1, 0.00,60.00,Thursday
4973,-0.9722835161953058
4826,1684453.3689508129
4827,7.608666517346417e-8
2,8, 1, 8, 0, 2, 0.00,60.00,Thursday
4973,-0.9680336054650287
4826,1695898.6949814405
4827,7.617586561536882e-8
2,8, 1, 8, 0, 3, 0.00,60.00,Thursday
4973,-0.9642309115794068
4826,1720416.8273481993
4827,3.9034375731716867e-8
2,8, 1, 8, 0, 4, 0.00,60.00,Thursday
4973,-0.9610716763581373
4826,1741950.6511664945
4827,6.169784683152102e-8
2,8, 1, 8, 0, 5, 0.00,60.00,Thursday
4973,-0.9583981148558551
4826,1752776.7901262604
4827,4.860112312599085e-9
2,8, 1, 8, 0, 6, 0.00,60.00,Thursday
4973,-0.9555708156511356
4826,1762219.5495451329
4827,5.417746251623612e-8
2,8, 1, 8, 0, 7, 0.00,60.00,Thursday
4973,-0.9536219190100026
4826,1761946.1594509206
4827,3.673221726785414e-8
2,8, 1, 8, 0, 8, 0.00,60.00,Thursday
4973,-1.4679491641594829
4826,0.0
4827,0.0
2,8, 1, 8, 0, 9, 0.00,60.00,Thursday
4973,-1.7566613527332669
4826,0.0
4827,0.0
2,8, 1, 8, 0,10, 0.00,60.00,Thursday
4973,-1.759073060969033
4826,0.0
4827,0.0
2,8, 1, 8, 0,11, 0.00,60.00,Thursday
4973,-1.7463743523128595
4826,0.0
4827,0.0
2,8, 1, 8, 0,12, 0.00,60.00,Thursday
4973,-1.7226879285900645
4826,0.0
4827,0.0
2,8, 1, 8, 0,13, 0.00,60.00,Thursday
4973,-1.69445241746002
4826,0.0
4827,0.0
2,8, 1, 8, 0,14, 0.00,60.00,Thursday
4973,-1.6653491148720528
4826,0.0
4827,0.0
2,8, 1, 8, 0,15, 0.00,60.00,Thursday
4973,-1.6389489873554786
4826,0.0
4827,0.0
2,8, 1, 8, 0,16, 0.00,60.00,Thursday
4973,-1.6178665791248635
4826,0.0
4827,0.0
2,8, 1, 8, 0,17, 0.00,60.00,Thursday
4973,-1.601571546473681
4826,0.0
4827,0.0
2,8, 1, 8, 0,18, 0.00,60.00,Thursday
4973,-1.6026556710079985
4826,0.0
4827,0.0
2,8, 1, 8, 0,19, 0.00,60.00,Thursday
4973,-1.622351102325838
4826,0.0
4827,0.0
2,8, 1, 8, 0,20, 0.00,60.00,Thursday
4973,-1.6383232559134776
4826,0.0
4827,0.0
2,8, 1, 8, 0,21, 0.00,60.00,Thursday
4973,-1.6527036137939167
4826,0.0
4827,0.0
2,8, 1, 8, 0,22, 0.00,60.00,Thursday
4973,-1.160544416801001
4826,2360657.299009382
4827,5.255230917100562e-8
2,8, 1, 8, 0,23, 0.00,60.00,Thursday
4973,-0.9892761846496017
4826,1624880.6943461386
4827,3.192326403222978e-8
2,8, 1, 8, 0,24, 0.00,60.00,Thursday
4973,-0.9746611356617198
4826,1537460.0695221034
4827,5.034053174313158e-8
2,9, 1, 9, 0, 1, 0.00,60.00,Friday
4973,-0.9683778698462285
4826,1755537.930682574
4827,7.344616343678873e-8
2,9, 1, 9, 0, 2, 0.00,60.00,Friday
4973,-0.965843696409417
4826,1783509.0246346454
4827,5.520064405573066e-8
2,9, 1, 9, 0, 3, 0.00,60.00,Friday
4973,-0.9637129130852973
4826,1790966.9695680834
4827,3.9750602809363048e-8
2,9, 1, 9, 0, 4, 0.00,60.00,Friday
4973,-0.9606795738549245
4826,1780558.4348565748
4827,3.1309355108533057e-8
2,9, 1, 9, 0, 5, 0.00,60.00,Friday
4973,-0.9568302597640371
4826,1768470.0106808095
4827,4.9470827434561218e-8
2,9, 1, 9, 0, 6, 0.00,60.00,Friday
4973,-0.9529602684647847
4826,1759129.5973458
4827,7.479457053705119e-8
2,9, 1, 9, 0, 7, 0.00,60.00,Friday
4973,-0.9500188326945169
4826,1750219.343127694
4827,4.640128281607758e-8
2,9, 1, 9, 0, 8, 0.00,60.00,Friday
4973,-1.4489373234417138
4826,0.0
4827,0.0
2,9, 1, 9, 0, 9, 0.00,60.00,Friday
4973,-1.746364052963393
4826,0.0
4827,0.0
2,9, 1, 9, 0,10, 0.00,60.00,Friday
4973,-1.7696715976225297
4826,0.0
4827,0.0
2,9, 1, 9, 0,11, 0.00,60.00,Friday
4973,-1.7721401381854867
4826,0.0
4827,0.0
2,9, 1, 9, 0,12, 0.00,60.00,Friday
4973,-1.7692763414025457
4826,0.0
4827,0.0
2,9, 1, 9, 0,13, 0.00,60.00,Friday
4973,-1.7658587166921658
4826,0.0
4827,0.0
2,9, 1, 9, 0,14, 0.00,60.00,Friday
4973,-1.7574458407677654
4826,0.0
4827,0.0
2,9, 1, 9, 0,15, 0.00,60.00,Friday
4973,-1.7532056902837679
4826,0.0
4827,0.0
2,9, 1, 9, 0,16, 0.00,60.00,Friday
4973,-1.7491893319009196
4826,0.0
4827,0.0
2,9, 1, 9, 0,17, 0.00,60.00,Friday
4973,-1.752129800119456
4826,0.0
4827,0.0
2,9, 1, 9, 0,18, 0.00,60.00,Friday
4973,-1.7615209685414757
4826,0.0
4827,0.0
2,9, 1, 9, 0,19, 0.00,60.00,Friday
4973,-1.7684944357794963
4826,0.0
4827,0.0
2,9, 1, 9, 0,20, 0.00,60.00,Friday
4973,-1.7595851128645035
4826,0.0
4827,0.0
2,9, 1, 9, 0,21, 0.00,60.00,Friday
4973,-1.758430433229468
4826,0.0
4827,0.0
2,9, 1, 9, 0,22, 0.00,60.00,Friday
4973,-1.2083901661615349
4826,2666772.061798829
4827,3.967215889133513e-8
2,9, 1, 9, 0,23, 0.00,60.00,Friday
4973,-1.021569880996641
4826,1819950.9657859805
4827,3.7550762499449777e-8
2,9, 1, 9, 0,24, 0.00,60.00,Friday
4973,-1.007930524299999
4826,1682271.6530878943
4827,1.3710632629226894e-8
2,10, 1,10, 0, 1, 0.00,60.00,Saturday
4973,-1.000046396536545
4826,1840192.8231743726
4827,1.9887654413841867
2,10, 1,10, 0, 2, 0.00,60.00,Saturday
4973,-0.9938967097038247
4826,1816391.9332576004
4827,1.8877699403674343e-8
2,10, 1,10, 0, 3, 0.00,60.00,Saturday
4973,-0.9883135671656194
4826,1780941.7160468982
4827,1.0794565241667442e-8
2,10, 1,10, 0, 4, 0.00,60.00,Saturday
4973,-0.9829680184299399
4826,1755228.0918081564
4827,3.923901203961577e-8
2,10, 1,10, 0, 5, 0.00,60.00,Saturday
4973,-0.9774467239993668
4826,1739724.8461775445
4827,6.277218744799029e-8
2,10, 1,10, 0, 6, 0.00,60.00,Saturday
4973,-0.9724101703526847
4826,1731560.2578249872
4827,6.650680006714538e-10
2,10, 1,10, 0, 7, 0.00,60.00,Saturday
4973,-0.968254765915296
4826,1722805.921977891
4827,4.092726157978177e-8
2,10, 1,10, 0, 8, 0.00,60.00,Saturday
4973,-0.9650272742119866
4826,1707687.0864813189
4827,2.630088147270726e-8
2,10, 1,10, 0, 9, 0.00,60.00,Saturday
4973,-0.9620898959506146
4826,1755720.759306557
4827,3.192326403222978e-8
2,10, 1,10, 0,10, 0.00,60.00,Saturday
4973,-0.9584655522368714
4826,1722527.0915593175
4827,2.4147084332071246e-8
2,10, 1,10, 0,11, 0.00,60.00,Saturday
4973,-0.954785699553667
4826,1722831.318899238
4827,6.809273145336192e-8
2,10, 1,10, 0,12, 0.00,60.00,Saturday
4973,-0.9516141162640719
4826,1651734.3271738897
4827,1.0369944902777206e-7
2,10, 1,10, 0,13, 0.00,60.00,Saturday
4973,-0.9476667870813144
4826,1568797.1661000967
4827,3.821583050012123e-8
2,10, 1,10, 0,14, 0.00,60.00,Saturday
4973,-0.9445876012091869
4826,1488424.6715592636
4827,2.0668267097789795e-8
2,10, 1,10, 0,15, 0.00,60.00,Saturday
4973,-0.93547203671557
4826,1330419.7589596553
4827,6.302798283286393e-8
2,10, 1,10, 0,16, 0.00,60.00,Saturday
4973,-0.919230538054904
4826,1235232.7510574049
4827,1.8468426787876525e-8
2,10, 1,10, 0,17, 0.00,60.00,Saturday
4973,-0.9035879285006241
4826,1265891.9426598214
4827,6.057234713807702e-8
2,10, 1,10, 0,18, 0.00,60.00,Saturday
4973,-0.8920611316808094
4826,1273378.1971292396
4827,5.5149484978755939e-8
2,10, 1,10, 0,19, 0.00,60.00,Saturday
4973,-0.8921001201942682
4826,1320407.2368281093
4827,6.343725544866175e-8
2,10, 1,10, 0,20, 0.00,60.00,Saturday
4973,-0.8927053202181516
4826,1244738.4270493002
4827,2.291926648467779e-8
2,10, 1,10, 0,21, 0.00,60.00,Saturday
4973,-0.8925509899741273
4826,1227252.2418182013
4827,5.044284989708103e-8
2,10, 1,10, 0,22, 0.00,60.00,Saturday
4973,-0.888238805971027
4826,1216927.1131327148
4827,4.860112312599085e-8
2,10, 1,10, 0,23, 0.00,60.00,Saturday
4973,-0.881923215697637
4826,1219368.8980540457
4827,1.3915268937125802e-8
2,10, 1,10, 0,24, 0.00,60.00,Saturday
4973,-0.8760979417947479
4826,1200398.766731579
4827,6.553477760462556e-8
2,11, 1,11, 0, 1, 0.00,60.00,Sunday
4973,-0.8774017226989924
4826,1404085.3569456444
4827,4.432365585671505e-8
2,11, 1,11, 0, 2, 0.00,60.00,Sunday
4973,-0.8828119587474014
4826,1471272.4048679795
4827,6.896243576193229e-8
2,11, 1,11, 0, 3, 0.00,60.00,Sunday
4973,-0.8895846507611834
4826,1507004.0888572492
4827,3.7550762499449777e-8
2,11, 1,11, 0, 4, 0.00,60.00,Sunday
4973,-0.8934108660496896
4826,1520905.8480707254
4827,7.852918315620627e-8
2,11, 1,11, 0, 5, 0.00,60.00,Sunday
4973,-0.894794652926156
4826,1536143.633213771
4827,6.752998160663992e-9
2,11, 1,11, 0, 6, 0.00,60.00,Sunday
4973,-0.8969971860249442
4826,1556273.4795418003
4827,3.7908876038272868e-8
2,11, 1,11, 0, 7, 0.00,60.00,Sunday
4973,-0.9000865885931989
4826,1573666.2772335823
4827,9.259792932425626e-9
2,11, 1,11, 0, 8, 0.00,60.00,Sunday
4973,-0.9017091944333664
4826,1558623.741379187
4827,3.836248652078211e-8
2,11, 1,11, 0, 9, 0.00,60.00,Sunday
4973,-0.9005503500115935
4826,1538819.3550483729
4827,3.668105819087941e-8
2,11, 1,11, 0,10, 0.00,60.00,Sunday
4973,-0.8950703099932799
4826,1459626.8056332055
4827,6.236291483219247e-8
2,11, 1,11, 0,11, 0.00,60.00,Sunday
4973,-0.8877539665498636
4826,1456643.784870303
4827,4.118305696465541e-8
2,11, 1,11, 0,12, 0.00,60.00,Sunday
4973,-0.8816076743942568
4826,1413969.582620657
4827,8.390088623855263e-8
2,11, 1,11, 0,13, 0.00,60.00,Sunday
4973,-0.8770364039004349
4826,1378903.476335133
4827,5.668425728799775e-8
2,11, 1,11, 0,14, 0.00,60.00,Sunday
4973,-0.8732035551718084
4826,1355439.9443396549
4827,3.0593128030886876e-8
2,11, 1,11, 0,15, 0.00,60.00,Sunday
4973,-0.8698163767813694
4826,1265127.9018340917
4827,5.924221113673411e-8
2,11, 1,11, 0,16, 0.00,60.00,Sunday
4973,-0.8661657510655586
4826,1235586.3013544095
4827,2.184492586820852e-8
2,11, 1,11, 0,17, 0.00,60.00,Sunday
4973,-0.8645149022998336
4826,1275851.792794574
4827,4.420144250616431e-8
2,11, 1,11, 0,18, 0.00,60.00,Sunday
4973,-0.8645268942084262
4826,1267925.5370720572
4827,4.90615548187634e-8
2,11, 1,11, 0,19, 0.00,60.00,Sunday
4973,-0.8627571091503168
4826,1248271.539237827
4827,2.0514789866865614e-8
2,11, 1,11, 0,20, 0.00,60.00,Sunday
4973,-0.8604914915290514
4826,1109480.8238823186
4827,2.28425278692157e-8
2,11, 1,11, 0,21, 0.00,60.00,Sunday
4973,-0.857998209125479
4826,1053579.3392875167
4827,3.4634695111890326e-8
2,11, 1,11, 0,22, 0.00,60.00,Sunday
4973,-0.8553203034109386
4826,1036418.9038324019
4827,3.228137757105287e-8
2,11, 1,11, 0,23, 0.00,60.00,Sunday
4973,-0.8545791820126463
4826,1025358.0674771521
4827,4.0108716348186138e-8
2,11, 1,11, 0,24, 0.00,60.00,Sunday
4973,-0.8541304395324798
4826,965403.2089419726
4827,1.9952040020143615e-9
2,12, 1,12, 0, 1, 0.00,60.00,Monday
4973,-0.8553961242357953
4826,1108971.3118902052
4827,2.6257396257278743e-8
2,12, 1,12, 0, 2, 0.00,60.00,Monday
4973,-0.8567531718223875
4826,1121280.0601832327
4827,2.603997018013615e-8
2,12, 1,12, 0, 3, 0.00,60.00,Monday
4973,-0.8587808240247769
4826,1153059.8470733083
4827,4.420144250616431e-8
2,12, 1,12, 0, 4, 0.00,60.00,Monday
4973,-0.8603366906137324
4826,1182215.3832878648
4827,6.103277883084957e-8
2,12, 1,12, 0, 5, 0.00,60.00,Monday
4973,-0.8603979908612615
4826,1209344.8112974037
4827,1.9952040020143614e-8
2,12, 1,12, 0, 6, 0.00,60.00,Monday
4973,-0.8588883686941287
4826,1234417.0913772255
4827,4.8191850510193038e-8
2,12, 1,12, 0, 7, 0.00,60.00,Monday
4973,-0.8562693533755872
4826,1251606.5074348734
4827,2.6398083718959243e-8
2,12, 1,12, 0, 8, 0.00,60.00,Monday
4973,-1.2959328302807907
4826,0.0
4827,0.0
2,12, 1,12, 0, 9, 0.00,60.00,Monday
4973,-1.5315544951794378
4826,0.0
4827,0.0
2,12, 1,12, 0,10, 0.00,60.00,Monday
4973,-1.5341465109487765
4826,0.0
4827,0.0
2,12, 1,12, 0,11, 0.00,60.00,Monday
4973,-1.53486920044518
4826,0.0
4827,0.0
2,12, 1,12, 0,12, 0.00,60.00,Monday
4973,-1.5397242938517773
4826,0.0
4827,0.0
2,12, 1,12, 0,13, 0.00,60.00,Monday
4973,-1.5414508521408439
4826,0.0
4827,0.0
2,12, 1,12, 0,14, 0.00,60.00,Monday
4973,-1.5462999485013148
4826,0.0
4827,0.0
2,12, 1,12, 0,15, 0.00,60.00,Monday
4973,-1.54454606386886
4826,0.0
4827,0.0
2,12, 1,12, 0,16, 0.00,60.00,Monday
4973,-1.5364409559871602
4826,0.0
4827,0.0
2,12, 1,12, 0,17, 0.00,60.00,Monday
4973,-1.5262748201616115
4826,0.0
4827,0.0
2,12, 1,12, 0,18, 0.00,60.00,Monday
4973,-1.5178421140146017
4826,0.0
4827,0.0
2,12, 1,12, 0,19, 0.00,60.00,Monday
4973,-1.5176503245473945
4826,0.0
4827,0.0
2,12, 1,12, 0,20, 0.00,60.00,Monday
4973,-1.5127409179811165
4826,0.0
4827,0.0
2,12, 1,12, 0,21, 0.00,60.00,Monday
4973,-1.5167387280727119
4826,0.0
4827,0.0
2,12, 1,12, 0,22, 0.00,60.00,Monday
4973,-1.0731862874150764
4826,1977310.2849056663
4827,1.4032934814167675e-8
2,12, 1,12, 0,23, 0.00,60.00,Monday
4973,-0.9231211935710244
4826,1305544.4887844604
4827,2.1384494175435976e-8
2,12, 1,12, 0,24, 0.00,60.00,Monday
4973,-0.912449641205018
4826,1195816.001718869
4827,8.185452315956354e-10
2,13, 1,13, 0, 1, 0.00,60.00,Tuesday
4973,-0.9060961928000926
4826,1374788.498755664
4827,4.256259380871086
2,13, 1,13, 0, 2, 0.00,60.00,Tuesday
4973,-0.900621741296006
4826,1366310.2696978138
4827,2.31239027925767e-8
2,13, 1,13, 0, 3, 0.00,60.00,Tuesday
4973,-0.8959551190516636
4826,1361070.988290664
4827,6.834852683823556e-8
2,13, 1,13, 0, 4, 0.00,60.00,Tuesday
4973,-0.8917692003205592
4826,1356085.1750702186
4827,1.8621904018800707e-8
2,13, 1,13, 0, 5, 0.00,60.00,Tuesday
4973,-0.887746949758228
4826,1355587.761599955
4827,5.284732651489321e-8
2,13, 1,13, 0, 6, 0.00,60.00,Tuesday
4973,-0.8838545395259696
4826,1359373.6245168038
4827,4.0824943425832319e-8
2,13, 1,13, 0, 7, 0.00,60.00,Tuesday
4973,-0.8812208787782679
4826,1361367.8155439343
4827,2.7830537874251605e-8