Program Version,EnergyPlus, Version 8.7.0-78a111df4a, YMD=2019.08.06 22:43
1,5,Environment Title[],Latitude[deg],Longitude[deg],Time Zone[],Elevation[m]
2,6,Day of Simulation[],Month[],Day of Month[],DST Indicator[1=yes 0=no],Hour[],StartMinute[],EndMinute[],DayType
3,3,Cumulative Day of Simulation[],Month[],Day of Month[],DST Indicator[1=yes 0=no],DayType  ! When Daily Report Variables Requested
4,2,Cumulative Days of Simulation[],Month[]  ! When Monthly Report Variables Requested
5,1,Cumulative Days of Simulation[] ! When Run Period Report Variables Requested
5408,1,3F-B-BED2,Zone Air Temperature [C] !Hourly
7437,1,3F-B-BED2 IDEAL LOADS AIR SYSTEM,Zone Ideal Loads Zone Total Heating Energy [J] !Hourly
7438,1,3F-B-BED2 IDEAL LOADS AIR SYSTEM,Zone Ideal Loads Zone Total Cooling Energy [J] !Hourly
7592,1,3F-B-BED2 BEDROOM-B,Zone Thermal Comfort Fanger Model PMV [] !Hourly
End of Data Dictionary
1,ANNUAL,  29.58, 106.47,   8.00, 259.10
2,1, 1, 1, 0, 1, 0.00,60.00,Sunday
7592,-1.004310598239216
5408,18.0
7437,1082236.255792579
7438,0.0
2,1, 1, 1, 0, 2, 0.00,60.00,Sunday
7592,-0.9926795744169007
5408,18.00000000000004
7437,1102440.138652585
7438,0.0
2,1, 1, 1, 0, 3, 0.00,60.00,Sunday
7592,-0.9875031102121118
5408,18.00000000000001
7437,1105703.2045011824
7438,0.0
2,1, 1, 1, 0, 4, 0.00,60.00,Sunday
7592,-0.9858469707954027
5408,17.99999999999999
7437,1129499.1086382243
7438,0.0
2,1, 1, 1, 0, 5, 0.00,60.00,Sunday
7592,-0.9862627372884338
5408,17.999999999999976
7437,1178721.5093390039
7438,0.0
2,1, 1, 1, 0, 6, 0.00,60.00,Sunday
7592,-0.9879001799697678
5408,18.000000000000026
7437,1234272.9924067786
7438,0.0
2,1, 1, 1, 0, 7, 0.00,60.00,Sunday
7592,-0.9905006128225765
5408,17.999999999999976
7437,1284615.8667439288
7438,0.0
2,1, 1, 1, 0, 8, 0.00,60.00,Sunday
7592,-0.9927768315163391
5408,18.00000000000001
7437,1320627.0684424106
7438,0.0
2,1, 1, 1, 0, 9, 0.00,60.00,Sunday
7592,-1.2939336411755725
5408,15.427370512410145
7437,0.0
7438,0.0
2,1, 1, 1, 0,10, 0.00,60.00,Sunday
7592,-1.5441080784536745
5408,14.73712403662166
7437,0.0
7438,0.0
2,1, 1, 1, 0,11, 0.00,60.00,Sunday
7592,-1.5808202573707986
5408,14.740483473192813
7437,0.0
7438,0.0
2,1, 1, 1, 0,12, 0.00,60.00,Sunday
7592,-1.5909219072494605
5408,14.767064588486333
7437,0.0
7438,0.0
2,1, 1, 1, 0,13, 0.00,60.00,Sunday
7592,-1.4151876725985154
5408,16.48743793938721
7437,1125162.5486609655
7438,0.0
2,1, 1, 1, 0,14, 0.00,60.00,Sunday
7592,-1.0512643317053295
5408,18.000000000587634
7437,1220571.673738377
7438,0.0
2,1, 1, 1, 0,15, 0.00,60.00,Sunday
7592,-1.2715659503077846
5408,15.763521018058839
7437,0.0
7438,0.0
2,1, 1, 1, 0,16, 0.00,60.00,Sunday
7592,-1.4603349928186938
5408,15.2463379561434
7437,0.0
7438,0.0
2,1, 1, 1, 0,17, 0.00,60.00,Sunday
7592,-1.4551740172360813
5408,15.383727998596406
7437,0.0
7438,0.0
2,1, 1, 1, 0,18, 0.00,60.00,Sunday
7592,-1.4310209112526893
5408,15.506373651376969
7437,0.0
7438,0.0
2,1, 1, 1, 0,19, 0.00,60.00,Sunday
7592,-1.4095809494509038
5408,15.572651223307132
7437,0.0
7438,0.0
2,1, 1, 1, 0,20, 0.00,60.00,Sunday
7592,-1.4020842279270814
5408,15.550637139042073
7437,0.0
7438,0.0
2,1, 1, 1, 0,21, 0.00,60.00,Sunday
7592,-1.4231782270437368
5408,15.42013127413403
7437,0.0
7438,0.0
2,1, 1, 1, 0,22, 0.00,60.00,Sunday
7592,-1.4628029289356715
5408,15.256126799516303
7437,0.0
7438,0.0
2,1, 1, 1, 0,23, 0.00,60.00,Sunday
7592,-1.112424918263722
5408,18.094384438575056
7437,1371342.5023827439
7438,0.0
2,1, 1, 1, 0,24, 0.00,60.00,Sunday
7592,-1.0154997267741133
5408,17.999999999999998
7437,1005426.2958851617
7438,0.0
2,2, 1, 2, 0, 1, 0.00,60.00,Monday
7592,-1.0061523240466713
5408,18.000000000000033
7437,1090515.776631417
7438,0.0
2,2, 1, 2, 0, 2, 0.00,60.00,Monday
7592,-1.0021867020145444
5408,18.00000000000004
7437,1124150.1143254908
7438,0.0
2,2, 1, 2, 0, 3, 0.00,60.00,Monday
7592,-1.0010218975718107
5408,18.000000000000044
7437,1143097.0331597317
7438,0.0
2,2, 1, 2, 0, 4, 0.00,60.00,Monday
7592,-0.9999826296871178
5408,18.00000000000003
7437,1158160.9970865958
7438,0.0
2,2, 1, 2, 0, 5, 0.00,60.00,Monday
7592,-0.9991031703883069
5408,18.000000000000044
7437,1174660.5581111443
7438,0.0
2,2, 1, 2, 0, 6, 0.00,60.00,Monday
7592,-0.9984376417740016
5408,17.999999999999984
7437,1194178.241021278
7438,0.0
2,2, 1, 2, 0, 7, 0.00,60.00,Monday
7592,-0.997890287388207
5408,18.000000000000019
7437,1208736.1555483726
7438,0.0
2,2, 1, 2, 0, 8, 0.00,60.00,Monday
7592,-0.9980331103361576
5408,18.000000000000008
7437,1215228.7103475405
7438,0.0
2,2, 1, 2, 0, 9, 0.00,60.00,Monday
7592,-1.2781960082929798
5408,15.590713116634682
7437,0.0
7438,0.0
2,2, 1, 2, 0,10, 0.00,60.00,Monday
7592,-1.508333258469146
5408,14.953584928977073
7437,0.0
7438,0.0
2,2, 1, 2, 0,11, 0.00,60.00,Monday
7592,-1.535360933883526
5408,14.976624855951309
7437,0.0
7438,0.0
2,2, 1, 2, 0,12, 0.00,60.00,Monday
7592,-1.5435793669037319
5408,15.001538695688899
7437,0.0
7438,0.0
2,2, 1, 2, 0,13, 0.00,60.00,Monday
7592,-1.3819947737826397
5408,16.602378148927973
7437,985039.7289341951
7438,0.0
2,2, 1, 2, 0,14, 0.00,60.00,Monday
7592,-1.051086863315193
5408,18.000000004593873
7437,1093853.8251472163
7438,0.0
2,2, 1, 2, 0,15, 0.00,60.00,Monday
7592,-1.267637020721634
5408,15.85601647946096
7437,0.0
7438,0.0
2,2, 1, 2, 0,16, 0.00,60.00,Monday
7592,-1.4509590184820323
5408,15.3192305817821
7437,0.0
7438,0.0
2,2, 1, 2, 0,17, 0.00,60.00,Monday
7592,-1.4693440975170216
5408,15.308249154532648
7437,0.0
7438,0.0
2,2, 1, 2, 0,18, 0.00,60.00,Monday
7592,-1.4866723970006824
5408,15.234791254732612
7437,0.0
7438,0.0
2,2, 1, 2, 0,19, 0.00,60.00,Monday
7592,-1.5100299769394637
5408,15.128676065319146
7437,0.0
7438,0.0
2,2, 1, 2, 0,20, 0.00,60.00,Monday
7592,-1.531077822389098
5408,15.034424006816613
7437,0.0
7438,0.0
2,2, 1, 2, 0,21, 0.00,60.00,Monday
7592,-1.5480321805897577
5408,14.966591260884544
7437,0.0
7438,0.0
2,2, 1, 2, 0,22, 0.00,60.00,Monday
7592,-1.5555294053882847
5408,14.939170840553054
7437,0.0
7438,0.0
2,2, 1, 2, 0,23, 0.00,60.00,Monday
7592,-1.139737691901083
5408,18.09304912873204
7437,1592073.9914065533
7438,0.0
2,2, 1, 2, 0,24, 0.00,60.00,Monday
7592,-1.0165120412512006
5408,18.000000000000008
7437,1131762.0602420413
7438,0.0
2,3, 1, 3, 0, 1, 0.00,60.00,Tuesday
7592,-1.0028501302220337
5408,18.000000000000037
7437,1212346.7378298329
7438,0.0
2,3, 1, 3, 0, 2, 0.00,60.00,Tuesday
7592,-0.998536556478323
5408,18.000000000000047
7437,1270307.6042952345
7438,0.0
2,3, 1, 3, 0, 3, 0.00,60.00,Tuesday
7592,-0.9998718414902358
5408,17.99999999999996
7437,1331673.8162054963
7438,0.0
2,3, 1, 3, 0, 4, 0.00,60.00,Tuesday
7592,-1.0014874451659615
5408,18.00000000000005
7437,1372190.4796073659
7438,0.0
2,3, 1, 3, 0, 5, 0.00,60.00,Tuesday
7592,-1.0026672838345683
5408,18.000000000000055
7437,1389711.5399705342
7438,0.0
2,3, 1, 3, 0, 6, 0.00,60.00,Tuesday
7592,-1.003692254462564
5408,17.99999999999999
7437,1391913.5727941867
7438,0.0
2,3, 1, 3, 0, 7, 0.00,60.00,Tuesday
7592,-1.004280555206938
5408,18.00000000000002
7437,1374268.2612648295
7438,0.0
2,3, 1, 3, 0, 8, 0.00,60.00,Tuesday
7592,-1.0042076502740836
5408,18.00000000000001
7437,1348827.1174222287
7438,0.0
2,3, 1, 3, 0, 9, 0.00,60.00,Tuesday
7592,-1.302518377887509
5408,15.447105317631495
7437,0.0
7438,0.0
2,3, 1, 3, 0,10, 0.00,60.00,Tuesday
7592,-1.5557945034099588
5408,14.733594080727683
7437,0.0
7438,0.0
2,3, 1, 3, 0,11, 0.00,60.00,Tuesday
7592,-1.6000848133459112
5408,14.702664752975986
7437,0.0
7438,0.0
2,3, 1, 3, 0,12, 0.00,60.00,Tuesday
7592,-1.6209177867403622
5408,14.676962445706196
7437,0.0
7438,0.0
2,3, 1, 3, 0,13, 0.00,60.00,Tuesday
7592,-1.4506736119121853
5408,16.417616589571716
7437,1230555.826793157
7438,0.0
2,3, 1, 3, 0,14, 0.00,60.00,Tuesday
7592,-1.0720651744917296
5408,18.000000001214486
7437,1465560.7713177854
7438,0.0
2,3, 1, 3, 0,15, 0.00,60.00,Tuesday
7592,-1.3296149391107275
5408,15.4475052225812
7437,0.0
7438,0.0
2,3, 1, 3, 0,16, 0.00,60.00,Tuesday
7592,-1.58039702742244
5408,14.69230483588421
7437,0.0
7438,0.0
2,3, 1, 3, 0,17, 0.00,60.00,Tuesday
7592,-1.6203930775764247
5408,14.654462794963722
7437,0.0
7438,0.0
2,3, 1, 3, 0,18, 0.00,60.00,Tuesday
7592,-1.6379398649297057
5408,14.6159271565582
7437,0.0
7438,0.0
2,3, 1, 3, 0,19, 0.00,60.00,Tuesday
7592,-1.6432232652838262
5408,14.603170238216436
7437,0.0
7438,0.0
2,3, 1, 3, 0,20, 0.00,60.00,Tuesday
7592,-1.6426458014492278
5408,14.596419922065751
7437,0.0
7438,0.0
2,3, 1, 3, 0,21, 0.00,60.00,Tuesday
7592,-1.642117471659253
5408,14.585140280940435
7437,0.0
7438,0.0
2,3, 1, 3, 0,22, 0.00,60.00,Tuesday
7592,-1.6412417215251838
5408,14.574521571993055
7437,0.0
7438,0.0
2,3, 1, 3, 0,23, 0.00,60.00,Tuesday
7592,-1.172984054875883
5408,18.0940468158054
7437,1958896.662459643
7438,0.0
2,3, 1, 3, 0,24, 0.00,60.00,Tuesday
7592,-1.0390361004476574
5408,18.000000000000033
7437,1388648.1902009734
7438,0.0
2,4, 1, 4, 0, 1, 0.00,60.00,Wednesday
7592,-1.0161930933244952
5408,18.000000000000047
7437,1389081.8941112436
7438,0.0
2,4, 1, 4, 0, 2, 0.00,60.00,Wednesday
7592,-1.0086485189581985
5408,17.99999999999999
7437,1375122.8887802787
7438,0.0
2,4, 1, 4, 0, 3, 0.00,60.00,Wednesday
7592,-1.0064205827530424
5408,18.00000000000003
7437,1369582.8049426354
7438,0.0
2,4, 1, 4, 0, 4, 0.00,60.00,Wednesday
7592,-1.0047753196995002
5408,18.00000000000004
7437,1366545.9019229743
7438,0.0
2,4, 1, 4, 0, 5, 0.00,60.00,Wednesday
7592,-1.0030403683690894
5408,17.999999999999984
7437,1359728.459620884
7438,0.0
2,4, 1, 4, 0, 6, 0.00,60.00,Wednesday
7592,-1.0013101603361148
5408,17.99999999999999
7437,1357621.1710074065
7438,0.0
2,4, 1, 4, 0, 7, 0.00,60.00,Wednesday
7592,-0.9999705103858568
5408,17.999999999999984
7437,1356354.957866822
7438,0.0
2,4, 1, 4, 0, 8, 0.00,60.00,Wednesday
7592,-0.9994422618584746
5408,17.99999999999999
7437,1351197.7322118979
7438,0.0
2,4, 1, 4, 0, 9, 0.00,60.00,Wednesday
7592,-1.2988878390369412
5408,15.415029363409696
7437,0.0
7438,0.0
2,4, 1, 4, 0,10, 0.00,60.00,Wednesday
7592,-1.5586595766778444
5408,14.655814378106399
7437,0.0
7438,0.0
2,4, 1, 4, 0,11, 0.00,60.00,Wednesday
7592,-1.60486432634819
5408,14.617128578279143
7437,0.0
7438,0.0
2,4, 1, 4, 0,12, 0.00,60.00,Wednesday
7592,-1.6299802567589863
5408,14.591721507326798
7437,0.0
7438,0.0
2,4, 1, 4, 0,13, 0.00,60.00,Wednesday
7592,-1.4574048264764273
5408,16.385890659251474
7437,1242175.1421621973
7438,0.0
2,4, 1, 4, 0,14, 0.00,60.00,Wednesday
7592,-1.0745238249384744
5408,18.00000000130788
7437,1482696.1065292783
7438,0.0
2,4, 1, 4, 0,15, 0.00,60.00,Wednesday
7592,-1.3243980844236286
5408,15.517455662704143
7437,0.0
7438,0.0
2,4, 1, 4, 0,16, 0.00,60.00,Wednesday
7592,-1.5614140647057447
5408,14.81806975366569
7437,0.0
7438,0.0
2,4, 1, 4, 0,17, 0.00,60.00,Wednesday
7592,-1.5889217497377193
5408,14.810708198790119
7437,0.0
7438,0.0
2,4, 1, 4, 0,18, 0.00,60.00,Wednesday
7592,-1.6057522170424763
5408,14.754849277011337
7437,0.0
7438,0.0
2,4, 1, 4, 0,19, 0.00,60.00,Wednesday
7592,-1.6171654650269465
5408,14.69605941553837
7437,0.0
7438,0.0
2,4, 1, 4, 0,20, 0.00,60.00,Wednesday
7592,-1.6258460904675066
5408,14.63721149650791
7437,0.0
7438,0.0
2,4, 1, 4, 0,21, 0.00,60.00,Wednesday
7592,-1.635471530589916
5408,14.584897186873084
7437,0.0
7438,0.0
2,4, 1, 4, 0,22, 0.00,60.00,Wednesday
7592,-1.643284937285639
5408,14.549777387386444
7437,0.0
7438,0.0
2,4, 1, 4, 0,23, 0.00,60.00,Wednesday
7592,-1.1752088417602487
5408,18.096251652951666
7437,1974463.5573335873
7438,0.0
2,4, 1, 4, 0,24, 0.00,60.00,Wednesday
7592,-1.0424362880382119
5408,18.00000000000001
7437,1403762.8149537778
7438,0.0
2,5, 1, 5, 0, 1, 0.00,60.00,Thursday
7592,-1.022372592654677
5408,17.999999999999984
7437,1395300.577109699
7438,0.0
2,5, 1, 5, 0, 2, 0.00,60.00,Thursday
7592,-1.017034362938509
5408,18.00000000000001
7437,1369645.807126945
7438,0.0
2,5, 1, 5, 0, 3, 0.00,60.00,Thursday
7592,-1.016625705968141
5408,17.99999999999999
7437,1360790.4738764028
7438,0.0
2,5, 1, 5, 0, 4, 0.00,60.00,Thursday
7592,-1.0179731804332207
5408,18.0
7437,1366484.6328694453
7438,0.0
2,5, 1, 5, 0, 5, 0.00,60.00,Thursday
7592,-1.0197985068577434
5408,18.000000000000019
7437,1378104.9201662192
7438,0.0
2,5, 1, 5, 0, 6, 0.00,60.00,Thursday
7592,-1.0209651642789973
5408,18.00000000000001
7437,1391626.5818683699
7438,0.0
2,5, 1, 5, 0, 7, 0.00,60.00,Thursday
7592,-1.022001101639814
5408,17.999999999999984
7437,1406618.4904598264
7438,0.0
2,5, 1, 5, 0, 8, 0.00,60.00,Thursday
7592,-1.0235395872514859
5408,18.000000000000005
7437,1417200.299353635
7438,0.0
2,5, 1, 5, 0, 9, 0.00,60.00,Thursday
7592,-1.3290453500756579
5408,15.377896096278969
7437,0.0
7438,0.0
2,5, 1, 5, 0,10, 0.00,60.00,Thursday
7592,-1.5952111478232237
5408,14.611100808068747
7437,0.0
7438,0.0
2,5, 1, 5, 0,11, 0.00,60.00,Thursday
7592,-1.639786299822805
5408,14.578411226660587
7437,0.0
7438,0.0
2,5, 1, 5, 0,12, 0.00,60.00,Thursday
7592,-1.6601939063702396
5408,14.553166132700048
7437,0.0
7438,0.0
2,5, 1, 5, 0,13, 0.00,60.00,Thursday
7592,-1.4817269869996739
5408,16.362746114348423
7437,1285346.2903379207
7438,0.0
2,5, 1, 5, 0,14, 0.00,60.00,Thursday
7592,-1.0857070998614047
5408,18.00000000161209
7437,1551766.2298539153
7438,0.0
2,5, 1, 5, 0,15, 0.00,60.00,Thursday
7592,-1.3416186924376453
5408,15.42608874576448
7437,0.0
7438,0.0
2,5, 1, 5, 0,16, 0.00,60.00,Thursday
7592,-1.5946082641875237
5408,14.66862449856387
7437,0.0
7438,0.0
2,5, 1, 5, 0,17, 0.00,60.00,Thursday
7592,-1.631056539848724
5408,14.660142717243693
7437,0.0
7438,0.0
2,5, 1, 5, 0,18, 0.00,60.00,Thursday
7592,-1.6445011306657318
5408,14.654567230641888
7437,0.0
7438,0.0
2,5, 1, 5, 0,19, 0.00,60.00,Thursday
7592,-1.648791097437069
5408,14.659264775896782
7437,0.0
7438,0.0
2,5, 1, 5, 0,20, 0.00,60.00,Thursday
7592,-1.6501890636436816
5408,14.654038280139212
7437,0.0
7438,0.0
2,5, 1, 5, 0,21, 0.00,60.00,Thursday
7592,-1.6561000539473446
5408,14.620745221321899
7437,0.0
7438,0.0
2,5, 1, 5, 0,22, 0.00,60.00,Thursday
7592,-1.6659047234611524
5408,14.572067104781603
7437,0.0
7438,0.0
2,5, 1, 5, 0,23, 0.00,60.00,Thursday
7592,-1.1989235325289583
5408,18.09799267345303
7437,2021511.299984064
7438,0.0
2,5, 1, 5, 0,24, 0.00,60.00,Thursday
7592,-1.0620257124314774
5408,18.000000000000097
7437,1465421.6655313443
7438,0.0
2,6, 1, 6, 0, 1, 0.00,60.00,Friday
7592,-1.0348855060799099
5408,18.0
7437,1472200.0931959623
7438,0.0
2,6, 1, 6, 0, 2, 0.00,60.00,Friday
7592,-1.0244617293719845
5408,18.00000000000004
7437,1463043.5680173475
7438,0.0
2,6, 1, 6, 0, 3, 0.00,60.00,Friday
7592,-1.0187387033157099
5408,18.0
7437,1449955.5552606844
7438,0.0
2,6, 1, 6, 0, 4, 0.00,60.00,Friday
7592,-1.0147157074888567
5408,17.99999999999999
7437,1440794.6523458984
7438,0.0
2,6, 1, 6, 0, 5, 0.00,60.00,Friday
7592,-1.011385172402473
5408,17.999999999999998
7437,1430798.742565569
7438,0.0
2,6, 1, 6, 0, 6, 0.00,60.00,Friday
7592,-1.0086869368747702
5408,18.00000000000005
7437,1418210.920182173
7438,0.0
2,6, 1, 6, 0, 7, 0.00,60.00,Friday
7592,-1.0069829655431278
5408,18.000000000000033
7437,1409443.6057185389
7438,0.0
2,6, 1, 6, 0, 8, 0.00,60.00,Friday
7592,-1.0072776781136093
5408,18.000000000000019
7437,1404697.0774389834
7438,0.0
2,6, 1, 6, 0, 9, 0.00,60.00,Friday
7592,-1.3093641070496105
5408,15.397343916455862
7437,0.0
7438,0.0
2,6, 1, 6, 0,10, 0.00,60.00,Friday
7592,-1.562887420788817
5408,14.694019073077149
7437,0.0
7438,0.0
2,6, 1, 6, 0,11, 0.00,60.00,Friday
7592,-1.5959721566541614
5408,14.73584431442236
7437,0.0
7438,0.0
2,6, 1, 6, 0,12, 0.00,60.00,Friday
7592,-1.6051858007987843
5408,14.792603710407598
7437,0.0
7438,0.0
2,6, 1, 6, 0,13, 0.00,60.00,Friday
7592,-1.4290432323704446
5408,16.529040629236915
7437,1034570.1429967554
7438,0.0
2,6, 1, 6, 0,14, 0.00,60.00,Friday
7592,-1.0665460407930228
5408,18.000000000657317
7437,1055707.7283649457
7438,0.0
2,6, 1, 6, 0,15, 0.00,60.00,Friday
7592,-1.2789733957099657
5408,15.977231137537658
7437,0.0
7438,0.0
2,6, 1, 6, 0,16, 0.00,60.00,Friday
7592,-1.457881075581179
5408,15.461754460886036
7437,0.0
7438,0.0
2,6, 1, 6, 0,17, 0.00,60.00,Friday
7592,-1.4661127827054424
5408,15.48902384162304
7437,0.0
7438,0.0
2,6, 1, 6, 0,18, 0.00,60.00,Friday
7592,-1.462994108594165
5408,15.481413470382537
7437,0.0
7438,0.0
2,6, 1, 6, 0,19, 0.00,60.00,Friday
7592,-1.4799796662028256
5408,15.354126728474869
7437,0.0
7438,0.0
2,6, 1, 6, 0,20, 0.00,60.00,Friday
7592,-1.4985726078594389
5408,15.230284281873404
7437,0.0
7438,0.0
2,6, 1, 6, 0,21, 0.00,60.00,Friday
7592,-1.514368475417091
5408,15.125773557832405
7437,0.0
7438,0.0
2,6, 1, 6, 0,22, 0.00,60.00,Friday
7592,-1.5286663423005367
5408,15.037632330953557
7437,0.0
7438,0.0
2,6, 1, 6, 0,23, 0.00,60.00,Friday
7592,-1.132553905134351
5408,18.10192143966769
7437,1513557.258284153
7438,0.0
2,6, 1, 6, 0,24, 0.00,60.00,Friday
7592,-1.0189749887467783
5408,18.00000000000001
7437,1095673.678991689
7438,0.0
2,7, 1, 7, 0, 1, 0.00,60.00,Saturday
7592,-1.0045040749828445
5408,18.000000000000033
7437,1150213.462726054
7438,0.0
2,7, 1, 7, 0, 2, 0.00,60.00,Saturday
7592,-0.9986108830913153
5408,18.000000000000026
7437,1176572.9700961675
7438,0.0
2,7, 1, 7, 0, 3, 0.00,60.00,Saturday
7592,-0.9976415304572769
5408,18.000000000000019
7437,1221865.2232292854
7438,0.0
2,7, 1, 7, 0, 4, 0.00,60.00,Saturday
7592,-0.9979471270784562
5408,18.000000000000019
7437,1284642.7914979277
7438,0.0
2,7, 1, 7, 0, 5, 0.00,60.00,Saturday
7592,-0.9991869885139583
5408,18.000000000000033
7437,1363134.2288659292
7438,0.0
2,7, 1, 7, 0, 6, 0.00,60.00,Saturday
7592,-1.0009738806923887
5408,17.99999999999996
7437,1439718.0961633907
7438,0.0
2,7, 1, 7, 0, 7, 0.00,60.00,Saturday
7592,-1.002848618472988
5408,18.000000000000015
7437,1503923.6650927959
7438,0.0
2,7, 1, 7, 0, 8, 0.00,60.00,Saturday
7592,-1.0044989173596422
5408,18.00000000000002
7437,1543993.2818854978
7438,0.0
2,7, 1, 7, 0, 9, 0.00,60.00,Saturday
7592,-1.3333238117205142
5408,15.196478128201756
7437,0.0
7438,0.0
2,7, 1, 7, 0,10, 0.00,60.00,Saturday
7592,-1.6059398848946638
5408,14.465126030836539
7437,0.0
7438,0.0
2,7, 1, 7, 0,11, 0.00,60.00,Saturday
7592,-1.6456715780902352
5408,14.49750098620786
7437,0.0
7438,0.0
2,7, 1, 7, 0,12, 0.00,60.00,Saturday
7592,-1.6526919040557322
5408,14.579767014537609
7437,0.0
7438,0.0
2,7, 1, 7, 0,13, 0.00,60.00,Saturday
7592,-1.4565274450634347
5408,16.43464319178064
7437,1145744.0100796303
7438,0.0
2,7, 1, 7, 0,14, 0.00,60.00,Saturday
7592,-1.0712227915352062
5408,18.000000000366524
7437,1111716.385463302
7438,0.0
2,7, 1, 7, 0,15, 0.00,60.00,Saturday
7592,-1.2709825377530635
5408,16.026689242570194
7437,0.0
7438,0.0
2,7, 1, 7, 0,16, 0.00,60.00,Saturday
7592,-1.3745343792377123
5408,15.894984902890906
7437,0.0
7438,0.0
2,7, 1, 7, 0,17, 0.00,60.00,Saturday
7592,-1.3669708015399103
5408,15.95461732092164
7437,0.0
7438,0.0
2,7, 1, 7, 0,18, 0.00,60.00,Saturday
7592,-1.3695668012325116
5408,15.943428805971344
7437,0.0
7438,0.0
2,7, 1, 7, 0,19, 0.00,60.00,Saturday
7592,-1.3947495497886913
5408,15.805202442723818
7437,0.0
7438,0.0
2,7, 1, 7, 0,20, 0.00,60.00,Saturday
7592,-1.4175463426070112
5408,15.684156194375758
7437,0.0
7438,0.0
2,7, 1, 7, 0,21, 0.00,60.00,Saturday
7592,-1.435176114031747
5408,15.576285068397944
7437,0.0
7438,0.0
2,7, 1, 7, 0,22, 0.00,60.00,Saturday
7592,-1.4519185400516637
5408,15.476605235940762
7437,0.0
7438,0.0
2,7, 1, 7, 0,23, 0.00,60.00,Saturday
7592,-1.1138783770497867
5408,18.10359980319487
7437,1121286.801683522
7438,0.0
2,7, 1, 7, 0,24, 0.00,60.00,Saturday
7592,-1.0218951309152425
5408,18.000000000000005
7437,796885.0358220628
7438,0.0
2,8, 1, 8, 0, 1, 0.00,60.00,Sunday
7592,-1.0093761478669963
5408,18.0
7437,879027.2904266262
7438,0.0
2,8, 1, 8, 0, 2, 0.00,60.00,Sunday
7592,-1.0009736749588796
5408,17.999999999999976
7437,906989.345863948
7438,0.0
2,8, 1, 8, 0, 3, 0.00,60.00,Sunday
7592,-0.9968910602693221
5408,18.000000000000026
7437,935353.8692755251
7438,0.0
2,8, 1, 8, 0, 4, 0.00,60.00,Sunday
7592,-0.994302384972383
5408,17.999999999999987
7437,966712.1949106823
7438,0.0
2,8, 1, 8, 0, 5, 0.00,60.00,Sunday
7592,-0.9923102007188077
5408,17.999999999999994
7437,995705.3002069234
7438,0.0
2,8, 1, 8, 0, 6, 0.00,60.00,Sunday
7592,-0.9904551837688128
5408,18.000000000000008
7437,1022199.078965565
7438,0.0
2,8, 1, 8, 0, 7, 0.00,60.00,Sunday
7592,-0.9898575050276036
5408,18.000000000000008
7437,1040655.40665573
7438,0.0
2,8, 1, 8, 0, 8, 0.00,60.00,Sunday
7592,-0.9901074894990898
5408,18.00000000000004
7437,1052639.5497563335
7438,0.0
2,8, 1, 8, 0, 9, 0.00,60.00,Sunday
7592,-1.248984433640965
5408,15.768512950476178
7437,0.0
7438,0.0
2,8, 1, 8, 0,10, 0.00,60.00,Sunday
7592,-1.4625923210684402
5408,15.120737259437599
7437,0.0
7438,0.0
2,8, 1, 8, 0,11, 0.00,60.00,Sunday
7592,-1.49321071794377
5408,15.166616010437253
7437,0.0
7438,0.0
2,8, 1, 8, 0,12, 0.00,60.00,Sunday
7592,-1.49635776028202
5408,15.231573912669944
7437,0.0
7438,0.0
2,8, 1, 8, 0,13, 0.00,60.00,Sunday
7592,-1.3401695135601637
5408,16.741198937703719
7437,808194.2372822299
7438,0.0
2,8, 1, 8, 0,14, 0.00,60.00,Sunday
7592,-1.043953585415562
5408,18.00000000272615
7437,784878.1594721733
7438,0.0
2,8, 1, 8, 0,15, 0.00,60.00,Sunday
7592,-1.226953611691468
5408,16.183616964077208
7437,0.0
7438,0.0
2,8, 1, 8, 0,16, 0.00,60.00,Sunday
7592,-1.3755441763504244
5408,15.758386734089882
7437,0.0
7438,0.0
2,8, 1, 8, 0,17, 0.00,60.00,Sunday
7592,-1.3791537480524164
5408,15.825109193573852
7437,0.0
7438,0.0
2,8, 1, 8, 0,18, 0.00,60.00,Sunday
7592,-1.3953627355980783
5408,15.761784949056965
7437,0.0
7438,0.0
2,8, 1, 8, 0,19, 0.00,60.00,Sunday
7592,-1.4099476280743606
5408,15.674803837065973
7437,0.0
7438,0.0
2,8, 1, 8, 0,20, 0.00,60.00,Sunday
7592,-1.4234722711203026
5408,15.594438568699692
7437,0.0
7438,0.0
2,8, 1, 8, 0,21, 0.00,60.00,Sunday
7592,-1.434781905186476
5408,15.52981293782799
7437,0.0
7438,0.0
2,8, 1, 8, 0,22, 0.00,60.00,Sunday
7592,-1.4402101528990928
5408,15.49156099205458
7437,0.0
7438,0.0
2,8, 1, 8, 0,23, 0.00,60.00,Sunday
7592,-1.0968969065050492
5408,18.09878425108131
7437,1121350.483343667
7438,0.0
2,8, 1, 8, 0,24, 0.00,60.00,Sunday
7592,-1.0051014098090497
5408,18.000000000000019
7437,731461.2536659503
7438,0.0
2,9, 1, 9, 0, 1, 0.00,60.00,Monday
7592,-0.9931630054058664
5408,18.00000000000002
7437,830793.7634596346
7438,0.0
2,9, 1, 9, 0, 2, 0.00,60.00,Monday
7592,-0.9868549210193245
5408,18.00000000000001
7437,882245.6180287239
7438,0.0
2,9, 1, 9, 0, 3, 0.00,60.00,Monday
7592,-0.983614564836457
5408,18.000000000000008
7437,912197.5312332085
7438,0.0
2,9, 1, 9, 0, 4, 0.00,60.00,Monday
7592,-0.9818430517217518
5408,18.000000000000026
7437,923082.3327878644
7438,0.0
2,9, 1, 9, 0, 5, 0.00,60.00,Monday
7592,-0.9805196724945722
5408,18.000000000000047
7437,931776.9061633963
7438,0.0
2,9, 1, 9, 0, 6, 0.00,60.00,Monday
7592,-0.9795663995275934
5408,18.0
7437,942762.649320188
7438,0.0
2,9, 1, 9, 0, 7, 0.00,60.00,Monday
7592,-0.9796391557978609
5408,18.000000000000008
7437,954593.2757579677
7438,0.0
2,9, 1, 9, 0, 8, 0.00,60.00,Monday
7592,-0.9806069721604619
5408,18.000000000000008
7437,964247.7427207221
7438,0.0
2,9, 1, 9, 0, 9, 0.00,60.00,Monday
7592,-1.2310561041609048
5408,15.843690584145632
7437,0.0
7438,0.0
2,9, 1, 9, 0,10, 0.00,60.00,Monday
7592,-1.441259463429909
5408,15.1827506215877
7437,0.0
7438,0.0
2,9, 1, 9, 0,11, 0.00,60.00,Monday
7592,-1.4803837396827487
5408,15.16457643194066
7437,0.0
7438,0.0
2,9, 1, 9, 0,12, 0.00,60.00,Monday
7592,-1.4959976511880005
5408,15.155463059860585
7437,0.0
7438,0.0
2,9, 1, 9, 0,13, 0.00,60.00,Monday
7592,-1.3495063926664875
5408,16.662730994003277
7437,914792.4435997969
7438,0.0
2,9, 1, 9, 0,14, 0.00,60.00,Monday
7592,-1.037874273025015
5408,18.000000000478335
7437,1009524.9934333568
7438,0.0
2,9, 1, 9, 0,15, 0.00,60.00,Monday
7592,-1.25839101508473
5408,15.851952798881344
7437,0.0
7438,0.0
2,9, 1, 9, 0,16, 0.00,60.00,Monday
7592,-1.45194527401025
5408,15.259168999211886
7437,0.0
7438,0.0
2,9, 1, 9, 0,17, 0.00,60.00,Monday
7592,-1.4841385426119705
5408,15.217219218072542
7437,0.0
7438,0.0
2,9, 1, 9, 0,18, 0.00,60.00,Monday
7592,-1.4999608095066422
5408,15.181174187002464
7437,0.0
7438,0.0
2,9, 1, 9, 0,19, 0.00,60.00,Monday
7592,-1.5065223326489717
5408,15.166582870021508
7437,0.0
7438,0.0
2,9, 1, 9, 0,20, 0.00,60.00,Monday
7592,-1.5088257694981178
5408,15.154058879159228
7437,0.0
7438,0.0
2,9, 1, 9, 0,21, 0.00,60.00,Monday
7592,-1.5129307478244918
5408,15.13548249401853
7437,0.0
7438,0.0
2,9, 1, 9, 0,22, 0.00,60.00,Monday
7592,-1.5171828521242175
5408,15.119361045030438
7437,0.0
7438,0.0
2,9, 1, 9, 0,23, 0.00,60.00,Monday
7592,-1.1294592092086722
5408,18.09698362320609
7437,1392809.509700686
7438,0.0
2,9, 1, 9, 0,24, 0.00,60.00,Monday
7592,-1.0198225460976794
5408,18.000000000000008
7437,941773.879589676
7438,0.0
2,10, 1,10, 0, 1, 0.00,60.00,Tuesday
7592,-1.007103185593358
5408,18.00000000000002
7437,968779.1920860265
7438,0.0
2,10, 1,10, 0, 2, 0.00,60.00,Tuesday
7592,-1.0016482360315194
5408,18.00000000000003
7437,961255.4987019557
7438,0.0
2,10, 1,10, 0, 3, 0.00,60.00,Tuesday
7592,-0.9996959353253777
5408,18.0
7437,958002.375715596
7438,0.0
2,10, 1,10, 0, 4, 0.00,60.00,Tuesday
7592,-0.9981921271204044
5408,18.000000000000005
7437,958685.314581353
7438,0.0
2,10, 1,10, 0, 5, 0.00,60.00,Tuesday
7592,-0.996445938105175
5408,17.99999999999998
7437,961002.61129488
7438,0.0
2,10, 1,10, 0, 6, 0.00,60.00,Tuesday
7592,-0.994893346440621
5408,18.000000000000008
7437,970719.819450799
7438,0.0
2,10, 1,10, 0, 7, 0.00,60.00,Tuesday
7592,-0.9938715611563415
5408,18.0
7437,980486.7363539782
7438,0.0
2,10, 1,10, 0, 8, 0.00,60.00,Tuesday
7592,-0.9938513585857356
5408,18.00000000000002
7437,983524.2566444567
7438,0.0
2,10, 1,10, 0, 9, 0.00,60.00,Tuesday
7592,-1.2461845373169307
5408,15.803454661550204
7437,0.0
7438,0.0
2,10, 1,10, 0,10, 0.00,60.00,Tuesday
7592,-1.4660188636293666
5408,15.141895940512685
7437,0.0
7438,0.0
2,10, 1,10, 0,11, 0.00,60.00,Tuesday
7592,-1.5027366247849179
5408,15.124896521094409
7437,0.0
7438,0.0
2,10, 1,10, 0,12, 0.00,60.00,Tuesday
7592,-1.5183706899515668
5408,15.136849698779871
7437,0.0
7438,0.0
2,10, 1,10, 0,13, 0.00,60.00,Tuesday
7592,-1.3657900157343777
5408,16.679417444489368
7437,884319.3775416904
7438,0.0
2,10, 1,10, 0,14, 0.00,60.00,Tuesday
7592,-1.05792073180923
5408,18.000000000136997
7437,938989.1125613512
7438,0.0
2,10, 1,10, 0,15, 0.00,60.00,Tuesday
7592,-1.2517885783652115
5408,16.073979939520894
7437,0.0
7438,0.0
2,10, 1,10, 0,16, 0.00,60.00,Tuesday
7592,-1.4055349721732809
5408,15.636694412918536
7437,0.0
7438,0.0
2,10, 1,10, 0,17, 0.00,60.00,Tuesday
7592,-1.4056441249084782
5408,15.671943204329795
7437,0.0
7438,0.0
2,10, 1,10, 0,18, 0.00,60.00,Tuesday
7592,-1.397882948275868
5408,15.680185290540138
7437,0.0
7438,0.0
2,10, 1,10, 0,19, 0.00,60.00,Tuesday
7592,-1.4265747510116096
5408,15.517919710370342
7437,0.0
7438,0.0
2,10, 1,10, 0,20, 0.00,60.00,Tuesday
7592,-1.4518599702940503
5408,15.394890071718607
7437,0.0
7438,0.0
2,10, 1,10, 0,21, 0.00,60.00,Tuesday
7592,-1.4666269266712838
5408,15.321237220856363
7437,0.0
7438,0.0
2,10, 1,10, 0,22, 0.00,60.00,Tuesday
7592,-1.4715947253597855
5408,15.293829324800968
7437,0.0
7438,0.0
2,10, 1,10, 0,23, 0.00,60.00,Tuesday
7592,-1.1050434127466702
5408,18.100035437081876
7437,1219148.247745242
7438,0.0
2,10, 1,10, 0,24, 0.00,60.00,Tuesday
7592,-1.0024294939906576
5408,18.000000000000033
7437,862705.6285936392
7438,0.0
2,11, 1,11, 0, 1, 0.00,60.00,Wednesday
7592,-0.9913941536759344
5408,18.0
7437,966154.990345993
7438,0.0
2,11, 1,11, 0, 2, 0.00,60.00,Wednesday
7592,-0.9891552291527814
5408,18.000000000000033
7437,1033998.0845456636
7438,0.0
2,11, 1,11, 0, 3, 0.00,60.00,Wednesday
7592,-0.9902031119313666
5408,18.000000000000019
7437,1076913.468248492
7438,0.0
2,11, 1,11, 0, 4, 0.00,60.00,Wednesday
7592,-0.9906637870953907
5408,18.00000000000006
7437,1097569.7323482137
7438,0.0
2,11, 1,11, 0, 5, 0.00,60.00,Wednesday
7592,-0.990556278853482
5408,18.000000000000008
7437,1119221.7856522152
7438,0.0
2,11, 1,11, 0, 6, 0.00,60.00,Wednesday
7592,-0.9917179844980106
5408,18.000000000000026
7437,1148206.9694642723
7438,0.0
2,11, 1,11, 0, 7, 0.00,60.00,Wednesday
7592,-0.993509709665969
5408,18.000000000000079
7437,1176479.8867612309
7438,0.0
2,11, 1,11, 0, 8, 0.00,60.00,Wednesday
7592,-0.9948321070918674
5408,18.00000000000001
7437,1174576.51690315
7438,0.0
2,11, 1,11, 0, 9, 0.00,60.00,Wednesday
7592,-1.269897219945874
5408,15.629720223310687
7437,0.0
7438,0.0
2,11, 1,11, 0,10, 0.00,60.00,Wednesday
7592,-1.4931762865061924
5408,15.002940515835434
7437,0.0
7438,0.0
2,11, 1,11, 0,11, 0.00,60.00,Wednesday
7592,-1.5212722422108332
5408,15.010771049602824
7437,0.0
7438,0.0
2,11, 1,11, 0,12, 0.00,60.00,Wednesday
7592,-1.5311143195162547
5408,15.009789682742069
7437,0.0
7438,0.0
2,11, 1,11, 0,13, 0.00,60.00,Wednesday
7592,-1.3749223588885109
5408,16.59221456331579
7437,987414.057892334
7438,0.0
2,11, 1,11, 0,14, 0.00,60.00,Wednesday
7592,-1.0452463786956055
5408,18.000000000965178
7437,1141140.3149368189
7438,0.0
2,11, 1,11, 0,15, 0.00,60.00,Wednesday
7592,-1.271661673491409
5408,15.74283784011151
7437,0.0
7438,0.0
2,11, 1,11, 0,16, 0.00,60.00,Wednesday
7592,-1.4887178856006956
5408,15.067368483483924
7437,0.0
7438,0.0
2,11, 1,11, 0,17, 0.00,60.00,Wednesday
7592,-1.5209413490478408
5408,15.04216548389863
7437,0.0
7438,0.0
2,11, 1,11, 0,18, 0.00,60.00,Wednesday
7592,-1.535610895309765
5408,15.01670648867362
7437,0.0
7438,0.0
2,11, 1,11, 0,19, 0.00,60.00,Wednesday
7592,-1.5399778641545075
5408,15.013976957006103
7437,0.0
7438,0.0
2,11, 1,11, 0,20, 0.00,60.00,Wednesday
7592,-1.54046320107975
5408,15.023433918650932
7437,0.0
7438,0.0
2,11, 1,11, 0,21, 0.00,60.00,Wednesday
7592,-1.5396079967280958
5408,15.032643233444647
7437,0.0
7438,0.0
2,11, 1,11, 0,22, 0.00,60.00,Wednesday
7592,-1.5397599216138327
5408,15.037885618007222
7437,0.0
7438,0.0
2,11, 1,11, 0,23, 0.00,60.00,Wednesday
7592,-1.1411200618703866
5408,18.10068760021198
7437,1453405.2950777456
7438,0.0
2,11, 1,11, 0,24, 0.00,60.00,Wednesday
7592,-1.0291167025251256
5408,17.99999999999997
7437,998012.0402186178
7438,0.0
2,12, 1,12, 0, 1, 0.00,60.00,Thursday
7592,-1.017919104525992
5408,18.000000000000008
7437,1025557.9671092567
7438,0.0