Program Version,EnergyPlus, Version 8.7.0-78a111df4a, YMD=2019.06.21 03:05
1,5,Environment Title[],Latitude[deg],Longitude[deg],Time Zone[],Elevation[m]
2,6,Day of Simulation[],Month[],Day of Month[],DST Indicator[1=yes 0=no],Hour[],StartMinute[],EndMinute[],DayType
3,3,Cumulative Day of Simulation[],Month[],Day of Month[],DST Indicator[1=yes 0=no],DayType  ! When Daily Report Variables Requested
4,2,Cumulative Days of Simulation[],Month[]  ! When Monthly Report Variables Requested
5,1,Cumulative Days of Simulation[] ! When Run Period Report Variables Requested
1929,1,THERMAL ZONE: SPACE 201,Zone Air Temperature [C] !Hourly
2695,1,THERMAL ZONE: SPACE 201 PEOPLE,Zone Thermal Comfort Fanger Model PMV [] !Hourly
3063,1,THERMAL ZONE: SPACE 305 PTHP,Zone Packaged Terminal Heat Pump Total Heating Energy [J] !Hourly
3064,1,THERMAL ZONE: SPACE 305 PTHP,Zone Packaged Terminal Heat Pump Total Cooling Energy [J] !Hourly
End of Data Dictionary
1,ANN HTG 99.6% CONDNS DB,  29.58, 106.47,   8.00, 259.10
2,1, 1,21, 0, 1, 0.00,60.00,WinterDesignDay
2695,-6.493633898953097
1929,18.000065826018586
3063,4653095.01869426
3064,0.0
2,1, 1,21, 0, 2, 0.00,60.00,WinterDesignDay
2695,-6.497546717957214
1929,18.00004976294809
3063,4672177.608263689
3064,0.0
2,1, 1,21, 0, 3, 0.00,60.00,WinterDesignDay
2695,-6.5008066558110129
1929,18.000035741633785
3063,4692017.014578696
3064,0.0
2,1, 1,21, 0, 4, 0.00,60.00,WinterDesignDay
2695,-6.503661746187876
1929,18.000030300076138
3063,4709822.673261827
3064,0.0
2,1, 1,21, 0, 5, 0.00,60.00,WinterDesignDay
2695,-6.506371537419355
1929,18.000023890089734
3063,4730099.725174908
3064,0.0
2,1, 1,21, 0, 6, 0.00,60.00,WinterDesignDay
2695,-6.5086148414223798
1929,17.999995944238788
3063,4760520.434083212
3064,0.0
2,1, 1,21, 0, 7, 0.00,60.00,WinterDesignDay
2695,-5.6772492525507449
1929,17.99992764686455
3063,4799699.908618137
3064,0.0
2,1, 1,21, 0, 8, 0.00,60.00,WinterDesignDay
2695,-5.67434596991703
1929,17.999833732505534
3063,5186250.700001323
3064,0.0
2,1, 1,21, 0, 9, 0.00,60.00,WinterDesignDay
2695,-5.319224632452372
1929,18.00009878249588
3063,6311378.929890324
3064,0.0
2,1, 1,21, 0,10, 0.00,60.00,WinterDesignDay
2695,-5.300396666038491
1929,18.00070507534661
3063,7305611.4118674029
3064,0.0
2,1, 1,21, 0,11, 0.00,60.00,WinterDesignDay
2695,-5.288500518265493
1929,18.00089895992006
3063,7022360.35129654
3064,0.0
2,1, 1,21, 0,12, 0.00,60.00,WinterDesignDay
2695,-5.2807452300318469
1929,18.000926003080918
3063,6835945.4084357139
3064,0.0
2,1, 1,21, 0,13, 0.00,60.00,WinterDesignDay
2695,-5.276511280768951
1929,18.000840190158436
3063,6367125.361039696
3064,0.0
2,1, 1,21, 0,14, 0.00,60.00,WinterDesignDay
2695,-5.272899071698507
1929,18.000816357538687
3063,6293917.781390585
3064,0.0
2,1, 1,21, 0,15, 0.00,60.00,WinterDesignDay
2695,-5.2682647244532119
1929,18.000961591068024
3063,6556831.809910555
3064,0.0
2,1, 1,21, 0,16, 0.00,60.00,WinterDesignDay
2695,-5.266438031112912
1929,18.001088710278386
3063,6544131.682803754
3064,0.0
2,1, 1,21, 0,17, 0.00,60.00,WinterDesignDay
2695,-5.267719730079082
1929,18.001147160691258
3063,6601311.3640900109
3064,0.0
2,1, 1,21, 0,18, 0.00,60.00,WinterDesignDay
2695,-5.270090538866229
1929,18.001193674074803
3063,6688173.474260971
3064,0.0
2,1, 1,21, 0,19, 0.00,60.00,WinterDesignDay
2695,-5.615263039666554
1929,18.000682534086967
3063,5223133.020402761
3064,0.0
2,1, 1,21, 0,20, 0.00,60.00,WinterDesignDay
2695,-5.630846628124481
1929,18.0003590230703
3063,5399485.114262106
3064,0.0
2,1, 1,21, 0,21, 0.00,60.00,WinterDesignDay
2695,-5.641173879368246
1929,18.00018876821823
3063,4570103.023660801
3064,0.0
2,1, 1,21, 0,22, 0.00,60.00,WinterDesignDay
2695,-5.649200853178111
1929,18.00011520900947
3063,4613867.190343211
3064,0.0
2,1, 1,21, 0,23, 0.00,60.00,WinterDesignDay
2695,-5.654856545545802
1929,18.000087624962914
3063,4634564.353840757
3064,0.0
2,1, 1,21, 0,24, 0.00,60.00,WinterDesignDay
2695,-5.659451436272689
1929,18.000075207682604
3063,4648174.80274305
3064,0.0
1,ANN CLG 4% CONDNS DB =>MWB,  29.58, 106.47,   8.00, 259.10
2,1, 7,21, 0, 1, 0.00,60.00,SummerDesignDay
2695,-3.152835194952535
1929,25.999760569354949
3063,0.0
3064,881194.2414424691
2,1, 7,21, 0, 2, 0.00,60.00,SummerDesignDay
2695,-3.163053712881558
1929,25.9998316973811
3063,0.0
3064,848745.5737897124
2,1, 7,21, 0, 3, 0.00,60.00,SummerDesignDay
2695,-3.1709751530190326
1929,25.999880467595586
3063,0.0
3064,821612.4537936056
2,1, 7,21, 0, 4, 0.00,60.00,SummerDesignDay
2695,-3.177427234981741
1929,25.999910953041878
3063,0.0
3064,798237.3939414522
2,1, 7,21, 0, 5, 0.00,60.00,SummerDesignDay
2695,-3.1830065967400666
1929,25.999932376388029
3063,0.0
3064,776022.1145237435
2,1, 7,21, 0, 6, 0.00,60.00,SummerDesignDay
2695,-3.1878523995414036
1929,25.999961467958646
3063,0.0
3064,750666.604023106
2,1, 7,21, 0, 7, 0.00,60.00,SummerDesignDay
2695,-3.8910217885713438
1929,25.999996695747396
3063,0.0
3064,720553.5810892187
2,1, 7,21, 0, 8, 0.00,60.00,SummerDesignDay
2695,-3.868064308898869
1929,25.99968113745786
3063,0.0
3064,1125520.864533911
2,1, 7,21, 0, 9, 0.00,60.00,SummerDesignDay
2695,-3.8100222622189965
1929,25.99690542339641
3063,0.0
3064,3787702.1780114455
2,1, 7,21, 0,10, 0.00,60.00,SummerDesignDay
2695,-3.659706773698486
1929,26.58020854626855
3063,0.0
3064,6870773.566840518
2,1, 7,21, 0,11, 0.00,60.00,SummerDesignDay
2695,-3.5467931664604968
1929,26.983027503987385
3063,0.0
3064,6973851.355073927
2,1, 7,21, 0,12, 0.00,60.00,SummerDesignDay
2695,-3.4768769553996097
1929,27.28424541922141
3063,0.0
3064,6914425.339157175
2,1, 7,21, 0,13, 0.00,60.00,SummerDesignDay
2695,-3.5136346422167294
1929,26.96217853815021
3063,0.0
3064,6569582.18810356
2,1, 7,21, 0,14, 0.00,60.00,SummerDesignDay
2695,-3.5201150848389739
1929,27.017965728242378
3063,0.0
3064,6330509.702673198
2,1, 7,21, 0,15, 0.00,60.00,SummerDesignDay
2695,-3.410116800296674
1929,27.626994377750959
3063,0.0
3064,6661192.617562261
2,1, 7,21, 0,16, 0.00,60.00,SummerDesignDay
2695,-3.36459999392981
1929,27.673370980089218
3063,0.0
3064,6921188.054342817
2,1, 7,21, 0,17, 0.00,60.00,SummerDesignDay
2695,-3.380204058988928
1929,27.550663805632678
3063,0.0
3064,7014413.51486121
2,1, 7,21, 0,18, 0.00,60.00,SummerDesignDay
2695,-3.4071484501049968
1929,27.376021751142884
3063,0.0
3064,7109477.637447098
2,1, 7,21, 0,19, 0.00,60.00,SummerDesignDay
2695,-3.580824865009619
1929,26.04738285845221
3063,0.0
3064,4160484.4779879336
2,1, 7,21, 0,20, 0.00,60.00,SummerDesignDay
2695,-3.690950154897744
1929,25.997017945372734
3063,0.0
3064,3390999.6988477197
2,1, 7,21, 0,21, 0.00,60.00,SummerDesignDay
2695,-3.725083890665536
1929,25.99858236460422
3063,0.0
3064,1361594.3522019746
2,1, 7,21, 0,22, 0.00,60.00,SummerDesignDay
2695,-3.777202868006828
1929,25.999172412748423
3063,0.0
3064,1133985.971239428
2,1, 7,21, 0,23, 0.00,60.00,SummerDesignDay
2695,-3.808536636940224
1929,25.999476145448769
3063,0.0
3064,1019353.208207033
2,1, 7,21, 0,24, 0.00,60.00,SummerDesignDay
2695,-3.829049201854721
1929,25.999661199784169
3063,0.0
3064,949328.8212373706
1,RUN PERIOD 1,  29.58, 106.47,   8.00, 259.10
2,1, 1, 1, 0, 1, 0.00,60.00,Holiday
2695,-6.1242750403623449
1929,18.000206017859275
3063,1683217.5154508763
3064,0.0
2,1, 1, 1, 0, 2, 0.00,60.00,Holiday
2695,-6.127445673292537
1929,18.0000771026799
3063,1710429.7538501439
3064,0.0
2,1, 1, 1, 0, 3, 0.00,60.00,Holiday
2695,-6.128924055547949
1929,18.000053358605596
3063,1714984.448613863
3064,0.0
2,1, 1, 1, 0, 4, 0.00,60.00,Holiday
2695,-6.130583994876108
1929,18.000073509404996
3063,1714480.8031807829
3064,0.0
2,1, 1, 1, 0, 5, 0.00,60.00,Holiday
2695,-6.133626950523691
1929,18.00012923128141
3063,1709859.2440457969
3064,0.0
2,1, 1, 1, 0, 6, 0.00,60.00,Holiday
2695,-6.140374015785887
1929,18.000165978153914
3063,1650518.4445503606
3064,0.0
2,1, 1, 1, 0, 7, 0.00,60.00,Holiday
2695,-6.546938523161735
1929,18.00012407237934
3063,1697156.2929508063
3064,0.0
2,1, 1, 1, 0, 8, 0.00,60.00,Holiday
2695,-6.5558519577889
1929,18.000079364773688
3063,1758434.2874201909
3064,0.0
2,1, 1, 1, 0, 9, 0.00,60.00,Holiday
2695,-6.0603717009217779
1929,18.000039456837475
3063,1818486.0896379464
3064,0.0
2,1, 1, 1, 0,10, 0.00,60.00,Holiday
2695,-6.062982685769781
1929,18.000008553717668
3063,1882738.8174716172
3064,0.0
2,1, 1, 1, 0,11, 0.00,60.00,Holiday
2695,-6.0637083262651318
1929,18.000005507802798
3063,1925981.998036379
3064,0.0
2,1, 1, 1, 0,12, 0.00,60.00,Holiday
2695,-6.064199843140673
1929,18.000002297429764
3063,1948139.0762773716
3064,0.0
2,1, 1, 1, 0,13, 0.00,60.00,Holiday
2695,-6.0648133013695049
1929,18.000000697847186
3063,1990877.7035550795
3064,0.0
2,1, 1, 1, 0,14, 0.00,60.00,Holiday
2695,-6.06343038654952
1929,18.000000578349224
3063,2031352.1459607688
3064,0.0
2,1, 1, 1, 0,15, 0.00,60.00,Holiday
2695,-6.059742303679424
1929,18.000000466433176
3063,2056656.7685190864
3064,0.0
2,1, 1, 1, 0,16, 0.00,60.00,Holiday
2695,-6.053611550460748
1929,18.000000363999406
3063,2069088.582192856
3064,0.0
2,1, 1, 1, 0,17, 0.00,60.00,Holiday
2695,-6.044957285954879
1929,18.000000284937319
3063,2065948.565094416
3064,0.0
2,1, 1, 1, 0,18, 0.00,60.00,Holiday
2695,-6.034199118116842
1929,18.00000023586393
3063,2040958.680892303
3064,0.0
2,1, 1, 1, 0,19, 0.00,60.00,Holiday
2695,-6.517202455773901
1929,18.000000209851163
3063,1991449.3679479017
3064,0.0
2,1, 1, 1, 0,20, 0.00,60.00,Holiday
2695,-6.504801221146271
1929,18.0000002144416
3063,1900974.2440226528
3064,0.0
2,1, 1, 1, 0,21, 0.00,60.00,Holiday
2695,-6.498091320784268
1929,18.00005837482171
3063,1786354.402066826
3064,0.0
2,1, 1, 1, 0,22, 0.00,60.00,Holiday
2695,-6.498861811413907
1929,18.000298369873297
3063,1699182.635647333
3064,0.0
2,1, 1, 1, 0,23, 0.00,60.00,Holiday
2695,-6.504800126979834
1929,18.000391219001928
3063,1658905.6933635958
3064,0.0
2,1, 1, 1, 0,24, 0.00,60.00,Holiday
2695,-6.5126379690334359
1929,18.000379763976527
3063,1648060.1658224585
3064,0.0
2,2, 1, 2, 0, 1, 0.00,60.00,Holiday
2695,-6.51988975019249
1929,18.000343724335975
3063,1647373.1241541489
3064,0.0
2,2, 1, 2, 0, 2, 0.00,60.00,Holiday
2695,-6.527050107217376
1929,18.00027900304937
3063,1660759.516869448
3064,0.0
2,2, 1, 2, 0, 3, 0.00,60.00,Holiday
2695,-6.533444754754828
1929,18.000200172812954
3063,1683519.7181201317
3064,0.0
2,2, 1, 2, 0, 4, 0.00,60.00,Holiday
2695,-6.538340762181082
1929,18.00013973395072
3063,1706080.3719726662
3064,0.0
2,2, 1, 2, 0, 5, 0.00,60.00,Holiday
2695,-6.5422400915046599
1929,18.000099929318428
3063,1728686.4770183117
3064,0.0
2,2, 1, 2, 0, 6, 0.00,60.00,Holiday
2695,-6.545582542901599
1929,18.000073890141388
3063,1753197.2707002855
3064,0.0
2,2, 1, 2, 0, 7, 0.00,60.00,Holiday
2695,-6.6491408457832
1929,18.000063744014708
3063,1777628.201971827
3064,0.0
2,2, 1, 2, 0, 8, 0.00,60.00,Holiday
2695,-6.65222793735101
1929,18.000049013811524
3063,1807475.0249847437
3064,0.0
2,2, 1, 2, 0, 9, 0.00,60.00,Holiday
2695,-6.136362027159788
1929,18.00000412827971
3063,1857914.37360448
3064,0.0
2,2, 1, 2, 0,10, 0.00,60.00,Holiday
2695,-6.136314845486484
1929,18.000000556923007
3063,1912599.3114365023
3064,0.0
2,2, 1, 2, 0,11, 0.00,60.00,Holiday
2695,-6.13468660178854
1929,18.00000049528859
3063,1937498.1482563914
3064,0.0
2,2, 1, 2, 0,12, 0.00,60.00,Holiday
2695,-6.133486228773772
1929,18.000000450819866
3063,1957150.9048596239
3064,0.0
2,2, 1, 2, 0,13, 0.00,60.00,Holiday
2695,-6.132408820629968
1929,18.00000041558494
3063,1974976.4966067104
3064,0.0
2,2, 1, 2, 0,14, 0.00,60.00,Holiday
2695,-6.131159724982619
1929,18.00000037671402
3063,1989046.126413532
3064,0.0
2,2, 1, 2, 0,15, 0.00,60.00,Holiday
2695,-6.128785517601181
1929,18.000000327192699
3063,2005311.5539394208
3064,0.0
2,2, 1, 2, 0,16, 0.00,60.00,Holiday
2695,-6.124109036640167
1929,18.00000028184685
3063,2009333.3412321034
3064,0.0
2,2, 1, 2, 0,17, 0.00,60.00,Holiday
2695,-6.117661169608322
1929,18.000000268217354
3063,1963451.6669735732
3064,0.0
2,2, 1, 2, 0,18, 0.00,60.00,Holiday
2695,-6.112450925246787
1929,18.00000028486779
3063,1888341.485379959
3064,0.0
2,2, 1, 2, 0,19, 0.00,60.00,Holiday
2695,-6.622735486066184
1929,18.000025426909376
3063,1820360.987135985
3064,0.0
2,2, 1, 2, 0,20, 0.00,60.00,Holiday
2695,-6.621226544476946
1929,18.0000965666129
3063,1763651.7779107048
3064,0.0
2,2, 1, 2, 0,21, 0.00,60.00,Holiday
2695,-6.621273195080921
1929,18.00009302667058
3063,1732401.7708794259
3064,0.0
2,2, 1, 2, 0,22, 0.00,60.00,Holiday
2695,-6.62111284651287
1929,18.000021060105138
3063,1727790.5775623518
3064,0.0
2,2, 1, 2, 0,23, 0.00,60.00,Holiday
2695,-6.619755587417991
1929,18.000000396752179
3063,1720293.029496609
3064,0.0
2,2, 1, 2, 0,24, 0.00,60.00,Holiday
2695,-6.618903700270259
1929,18.000043427387788
3063,1695431.3493004114
3064,0.0
2,3, 1, 3, 0, 1, 0.00,60.00,Holiday
2695,-6.620815744651201
1929,18.000115507645064
3063,1677775.7734541
3064,0.0
2,3, 1, 3, 0, 2, 0.00,60.00,Holiday
2695,-6.625082639615999
1929,18.000208756957077
3063,1657885.7892662646
3064,0.0
2,3, 1, 3, 0, 3, 0.00,60.00,Holiday
2695,-6.632825147485011
1929,18.000248712301486
3063,1611567.9672262069
3064,0.0
2,3, 1, 3, 0, 4, 0.00,60.00,Holiday
2695,-6.646012700239321
1929,18.000159280518834
3063,1650980.4359530619
3064,0.0
2,3, 1, 3, 0, 5, 0.00,60.00,Holiday
2695,-6.6554200029776819
1929,18.000081617544426
3063,1727013.324870158
3064,0.0
2,3, 1, 3, 0, 6, 0.00,60.00,Holiday
2695,-6.66080866394372
1929,18.000039829391136
3063,1778959.7691294945
3064,0.0
2,3, 1, 3, 0, 7, 0.00,60.00,Holiday
2695,-6.5659037479650179
1929,18.00000738102446
3063,1848107.9297789133
3064,0.0
2,3, 1, 3, 0, 8, 0.00,60.00,Holiday
2695,-6.566151431368991
1929,18.00000363057631
3063,1873464.8465456214
3064,0.0
2,3, 1, 3, 0, 9, 0.00,60.00,Holiday
2695,-6.064862023429018
1929,18.0000007357674
3063,1905691.2732587755
3064,0.0
2,3, 1, 3, 0,10, 0.00,60.00,Holiday
2695,-6.065472809510541
1929,18.000000688612976
3063,1940310.9321980309
3064,0.0
2,3, 1, 3, 0,11, 0.00,60.00,Holiday
2695,-6.066292415228493
1929,18.000000652820878
3063,1976056.650522143
3064,0.0
2,3, 1, 3, 0,12, 0.00,60.00,Holiday
2695,-6.067068905354444
1929,18.000000619811514
3063,2008785.1922139556
3064,0.0
2,3, 1, 3, 0,13, 0.00,60.00,Holiday
2695,-6.068115028674039
1929,18.00000059659687
3063,2039894.2791475626
3064,0.0
2,3, 1, 3, 0,14, 0.00,60.00,Holiday
2695,-6.069190209019819
1929,18.000000579509658
3063,2070966.0464752503
3064,0.0
2,3, 1, 3, 0,15, 0.00,60.00,Holiday
2695,-6.070112545822738
1929,18.000000569490167
3063,2101554.45538091
3064,0.0
2,3, 1, 3, 0,16, 0.00,60.00,Holiday
2695,-6.070637206132063
1929,18.000000564048084
3063,2128750.830562453
3064,0.0
2,3, 1, 3, 0,17, 0.00,60.00,Holiday
2695,-6.070655603684986
1929,18.00000055772833
3063,2157719.7586966597
3064,0.0
2,3, 1, 3, 0,18, 0.00,60.00,Holiday
2695,-6.0698152780383058
1929,18.000000557613374
3063,2179082.76098855
3064,0.0
2,3, 1, 3, 0,19, 0.00,60.00,Holiday
2695,-6.5723627926409959
1929,18.00000055491358
3063,2196477.8964432168
3064,0.0
2,3, 1, 3, 0,20, 0.00,60.00,Holiday
2695,-6.570113637252586
1929,18.00000056027745
3063,2209930.6627813095
3064,0.0
2,3, 1, 3, 0,21, 0.00,60.00,Holiday
2695,-6.5675129582068119
1929,18.000000568663358
3063,2216701.048575397
3064,0.0
2,3, 1, 3, 0,22, 0.00,60.00,Holiday
2695,-6.565113151243273
1929,18.000000578972928
3063,2218079.727194534
3064,0.0
2,3, 1, 3, 0,23, 0.00,60.00,Holiday
2695,-6.563359818508616
1929,18.000000594993265
3063,2220524.444628796
3064,0.0
2,3, 1, 3, 0,24, 0.00,60.00,Holiday
2695,-6.562297787658248
1929,18.00000061149814
3063,2218761.2207908539
3064,0.0
2,4, 1, 4, 0, 1, 0.00,60.00,Wednesday
2695,-6.5622458428174259
1929,18.000000628586155
3063,2225491.2485031068
3064,0.0
2,4, 1, 4, 0, 2, 0.00,60.00,Wednesday
2695,-6.562463470592199
1929,18.000002174919634
3063,2230236.2446448386
3064,0.0
2,4, 1, 4, 0, 3, 0.00,60.00,Wednesday
2695,-6.563205971215168
1929,18.00000160576381
3063,2240295.057855183
3064,0.0
2,4, 1, 4, 0, 4, 0.00,60.00,Wednesday
2695,-6.563800364256751
1929,18.00000068326808
3063,2254011.4872812295
3064,0.0
2,4, 1, 4, 0, 5, 0.00,60.00,Wednesday
2695,-6.564021050752508
1929,18.00000069369523
3063,2270305.687992725
3064,0.0
2,4, 1, 4, 0, 6, 0.00,60.00,Wednesday
2695,-6.563681153219258
1929,18.000000706811496
3063,2281279.4867602626
3064,0.0
2,4, 1, 4, 0, 7, 0.00,60.00,Wednesday
2695,-6.693005632374953
1929,18.00000071784009
3063,2286980.8708461627
3064,0.0
2,4, 1, 4, 0, 8, 0.00,60.00,Wednesday
2695,-6.691364730101914
1929,18.00002572235
3063,2283582.3559609905
3064,0.0
2,4, 1, 4, 0, 9, 0.00,60.00,Wednesday
2695,-6.154243061283965
1929,18.00020734327637
3063,2193091.2625560818
3064,0.0
2,4, 1, 4, 0,10, 0.00,60.00,Wednesday
2695,-6.13671520705586
1929,18.00042365240871
3063,2038893.3110362422
3064,0.0
2,4, 1, 4, 0,11, 0.00,60.00,Wednesday
2695,-6.130661333701567
1929,18.00051468276443
3063,1951730.0602662806
3064,0.0
2,4, 1, 4, 0,12, 0.00,60.00,Wednesday
2695,-6.1315447254098969
1929,18.000493897108723
3063,1892073.9513630667
3064,0.0
2,4, 1, 4, 0,13, 0.00,60.00,Wednesday
2695,-6.1332957259979719
1929,18.00047968097163
3063,1857213.9905114528
3064,0.0
2,4, 1, 4, 0,14, 0.00,60.00,Wednesday
2695,-6.13383124706075
1929,18.000415279229384
3063,1772282.9177978463
3064,0.0
2,4, 1, 4, 0,15, 0.00,60.00,Wednesday
2695,-6.128312801229806
1929,18.000296498340615
3063,1567223.5981142515
3064,0.0
2,4, 1, 4, 0,16, 0.00,60.00,Wednesday
2695,-6.117737255899265
1929,18.000228469579328
3063,1399909.9812314567
3064,0.0
2,4, 1, 4, 0,17, 0.00,60.00,Wednesday
2695,-6.1069891105599469
1929,18.00022753071831
3063,1313092.1390438367
3064,0.0
2,4, 1, 4, 0,18, 0.00,60.00,Wednesday
2695,-6.101031056055966
1929,18.000251764774146
3063,1316110.4477599846
3064,0.0
2,4, 1, 4, 0,19, 0.00,60.00,Wednesday
2695,-6.621002754606636
1929,18.00040594444133
3063,1787705.3015034539
3064,0.0
2,4, 1, 4, 0,20, 0.00,60.00,Wednesday
2695,-6.633082755753974
1929,18.0002764866455
3063,1848784.008348951
3064,0.0
2,4, 1, 4, 0,21, 0.00,60.00,Wednesday
2695,-6.641738620560459
1929,18.00025605290565
3063,1970584.426738349
3064,0.0
2,4, 1, 4, 0,22, 0.00,60.00,Wednesday
2695,-6.648449966153613
1929,18.000192556342346
3063,1986575.497618379
3064,0.0
2,4, 1, 4, 0,23, 0.00,60.00,Wednesday
2695,-6.653473941928545
1929,18.000147535091896
3063,1994533.0543373293
3064,0.0
2,4, 1, 4, 0,24, 0.00,60.00,Wednesday
2695,-6.657738025897726
1929,18.000131013797167
3063,1997466.211270704
3064,0.0
2,5, 1, 5, 0, 1, 0.00,60.00,Thursday
2695,-6.66236323480662
1929,18.000118319164526
3063,2004102.0674812862
3064,0.0
2,5, 1, 5, 0, 2, 0.00,60.00,Thursday
2695,-6.666628892825364
1929,18.000112435297657
3063,2011856.0788735892
3064,0.0
2,5, 1, 5, 0, 3, 0.00,60.00,Thursday
2695,-6.670597921977422
1929,18.000127030367009
3063,2016241.1705630955
3064,0.0
2,5, 1, 5, 0, 4, 0.00,60.00,Thursday
2695,-6.675165839469127
1929,18.000158552450299
3063,2018069.0941939189
3064,0.0
2,5, 1, 5, 0, 5, 0.00,60.00,Thursday
2695,-6.680482361831072
1929,18.000163778791334
3063,2029409.4932117956
3064,0.0
2,5, 1, 5, 0, 6, 0.00,60.00,Thursday
2695,-6.685729594558978
1929,18.000150864224918
3063,2045041.784811845
3064,0.0
2,5, 1, 5, 0, 7, 0.00,60.00,Thursday
2695,-6.702463941686798
1929,18.00016312419214
3063,2051545.1648524844
3064,0.0
2,5, 1, 5, 0, 8, 0.00,60.00,Thursday
2695,-6.7065143176729979
1929,18.000155625360958
3063,2064152.3236879623
3064,0.0
2,5, 1, 5, 0, 9, 0.00,60.00,Thursday
2695,-6.171268777366265
1929,18.00022645646573
3063,1997683.4260480519
3064,0.0
2,5, 1, 5, 0,10, 0.00,60.00,Thursday
2695,-6.153830707018362
1929,18.000366802815468
3063,1856413.1786906659
3064,0.0
2,5, 1, 5, 0,11, 0.00,60.00,Thursday
2695,-6.144124201014435
1929,18.000424046969245
3063,1764265.511716138
3064,0.0
2,5, 1, 5, 0,12, 0.00,60.00,Thursday
2695,-6.140244763661119
1929,18.00041729487464
3063,1702138.7935953886
3064,0.0
2,5, 1, 5, 0,13, 0.00,60.00,Thursday
2695,-6.138272754527828
1929,18.00039147785311
3063,1682453.1486164609
3064,0.0
2,5, 1, 5, 0,14, 0.00,60.00,Thursday
2695,-6.134270078492783
1929,18.00036549334842
3063,1619561.9366568144
3064,0.0
2,5, 1, 5, 0,15, 0.00,60.00,Thursday
2695,-6.128657967546407
1929,18.00032175026738
3063,1483757.8481870739
3064,0.0
2,5, 1, 5, 0,16, 0.00,60.00,Thursday
2695,-6.123439952482105
1929,18.000296702396637
3063,1390306.5354656142
3064,0.0
2,5, 1, 5, 0,17, 0.00,60.00,Thursday
2695,-6.118783188774724
1929,18.000264197548849
3063,1297277.111617745
3064,0.0
2,5, 1, 5, 0,18, 0.00,60.00,Thursday
2695,-6.1143202617516059
1929,18.00023890798953
3063,1212523.889949614
3064,0.0
2,5, 1, 5, 0,19, 0.00,60.00,Thursday
2695,-6.636862014000457
1929,18.00037707060356
3063,1613002.7330688223
3064,0.0
2,5, 1, 5, 0,20, 0.00,60.00,Thursday
2695,-6.649487150113289
1929,18.000259650520794
3063,1650969.753601028
3064,0.0
2,5, 1, 5, 0,21, 0.00,60.00,Thursday
2695,-6.658809145048589
1929,18.000268350082334
3063,1821014.3356744364
3064,0.0
2,5, 1, 5, 0,22, 0.00,60.00,Thursday
2695,-6.666398333852929
1929,18.000234903414336
3063,1836511.5512664747
3064,0.0
2,5, 1, 5, 0,23, 0.00,60.00,Thursday
2695,-6.6729136002665438
1929,18.000186640483226
3063,1853274.6917714002
3064,0.0
2,5, 1, 5, 0,24, 0.00,60.00,Thursday
2695,-6.677967619884215
1929,18.000092287505234
3063,1883015.690638322
3064,0.0
2,6, 1, 6, 0, 1, 0.00,60.00,Friday
2695,-6.680358448372043
1929,18.000037663485469
3063,1899559.4490689568
3064,0.0
2,6, 1, 6, 0, 2, 0.00,60.00,Friday
2695,-6.681872506818636
1929,18.000004593530354
3063,1917861.9695717095
3064,0.0
2,6, 1, 6, 0, 3, 0.00,60.00,Friday
2695,-6.682330065103785
1929,18.000000505782738
3063,1938099.4285322419
3064,0.0
2,6, 1, 6, 0, 4, 0.00,60.00,Friday
2695,-6.681833702592921
1929,18.000000523420267
3063,1954144.9511433356
3064,0.0
2,6, 1, 6, 0, 5, 0.00,60.00,Friday
2695,-6.68082725383529
1929,18.00000053482529
3063,1967175.6081763115
3064,0.0
2,6, 1, 6, 0, 6, 0.00,60.00,Friday
2695,-6.679701177861972
1929,18.000000541299185
3063,1979902.731143956
3064,0.0
2,6, 1, 6, 0, 7, 0.00,60.00,Friday
2695,-6.675935452230888
1929,18.000000547873545
3063,1981461.4694911256
3064,0.0
2,6, 1, 6, 0, 8, 0.00,60.00,Friday
2695,-6.674530595212659
1929,18.000019352614296
3063,1976231.840983668
3064,0.0
2,6, 1, 6, 0, 9, 0.00,60.00,Friday
2695,-6.140913851826042
1929,18.000167173143774
3063,1856329.0872465827
3064,0.0
2,6, 1, 6, 0,10, 0.00,60.00,Friday
2695,-6.121651859793026
1929,18.000297591803446
3063,1577736.0739546258
3064,0.0
2,6, 1, 6, 0,11, 0.00,60.00,Friday
2695,-6.112732781557516
1929,18.000307117764068
3063,1387515.7331244252
3064,0.0
2,6, 1, 6, 0,12, 0.00,60.00,Friday
2695,-6.11019732071063
1929,18.0002403841882
3063,1224708.3552364717
3064,0.0
2,6, 1, 6, 0,13, 0.00,60.00,Friday
2695,-6.108573695598403
1929,18.00021178416603
3063,1157355.670189677
3064,0.0
2,6, 1, 6, 0,14, 0.00,60.00,Friday
2695,-6.105382870667401
1929,18.000159416453326
3063,978593.6762663722
3064,0.0
2,6, 1, 6, 0,15, 0.00,60.00,Friday
2695,-6.077321562130696
1929,18.150793815050638
3063,555594.4611678292
3064,0.0
2,6, 1, 6, 0,16, 0.00,60.00,Friday
2695,-6.0147485684575099
1929,18.40704491989901
3063,264460.7466069149
3064,0.0
2,6, 1, 6, 0,17, 0.00,60.00,Friday
2695,-5.967205715755841
1929,18.531922759870118
3063,113684.31885211027
3064,0.0
2,6, 1, 6, 0,18, 0.00,60.00,Friday
2695,-5.952894235349717
1929,18.514975265302174
3063,102033.0193938705
3064,0.0
2,6, 1, 6, 0,19, 0.00,60.00,Friday
2695,-6.520752509236694
1929,18.01877422993601
3063,1036858.8455599817
3064,0.0
2,6, 1, 6, 0,20, 0.00,60.00,Friday
2695,-6.552765508923467
1929,18.000182064145159
3063,1038431.4638719529
3064,0.0
2,6, 1, 6, 0,21, 0.00,60.00,Friday
2695,-6.560373014399269
1929,18.00025782199915
3063,1311711.8710929238
3064,0.0
2,6, 1, 6, 0,22, 0.00,60.00,Friday
2695,-6.565032564943877
1929,18.000218308248184
3063,1276615.5274305195
3064,0.0
2,6, 1, 6, 0,23, 0.00,60.00,Friday
2695,-6.569182288657878
1929,18.00020608855078
3063,1244874.7134619556
3064,0.0
2,6, 1, 6, 0,24, 0.00,60.00,Friday
2695,-6.573759224295606
1929,18.000205551924127
3063,1223268.9478970874
3064,0.0
2,7, 1, 7, 0, 1, 0.00,60.00,Saturday
2695,-6.578989202695756
1929,18.000193653571718
3063,1216091.5863981595
3064,0.0
2,7, 1, 7, 0, 2, 0.00,60.00,Saturday
2695,-6.584496574270275
1929,18.000196970964166
3063,1214598.7275488715
3064,0.0
2,7, 1, 7, 0, 3, 0.00,60.00,Saturday
2695,-6.590698096820628
1929,18.000214893592383
3063,1217181.557857272
3064,0.0
2,7, 1, 7, 0, 4, 0.00,60.00,Saturday
2695,-6.598028625666136
1929,18.00023919205486
3063,1223610.2342868583
3064,0.0
2,7, 1, 7, 0, 5, 0.00,60.00,Saturday
2695,-6.606807165064871
1929,18.000270154146276
3063,1211018.7851934368
3064,0.0
2,7, 1, 7, 0, 6, 0.00,60.00,Saturday
2695,-6.62260387760459
1929,18.00023307713326
3063,1164891.0830350216
3064,0.0
2,7, 1, 7, 0, 7, 0.00,60.00,Saturday
2695,-6.433273592823593
1929,18.000153287829133
3063,1243765.934260133
3064,0.0
2,7, 1, 7, 0, 8, 0.00,60.00,Saturday
2695,-6.446287432703382
1929,18.00009073903482
3063,1323559.7875713479
3064,0.0
2,7, 1, 7, 0, 9, 0.00,60.00,Saturday
2695,-5.973760094505831
1929,18.0000555592253
3063,1388497.681443973
3064,0.0
2,7, 1, 7, 0,10, 0.00,60.00,Saturday
2695,-5.979344562518932
1929,18.000044650702834
3063,1439943.270987439
3064,0.0
2,7, 1, 7, 0,11, 0.00,60.00,Saturday
2695,-5.9842514173280298
1929,18.000033165601868
3063,1497200.454562666
3064,0.0
2,7, 1, 7, 0,12, 0.00,60.00,Saturday
2695,-5.988070913739601
1929,18.000022736107565
3063,1551060.5835935584
3064,0.0
2,7, 1, 7, 0,13, 0.00,60.00,Saturday
2695,-5.990319698290919
1929,18.000001464259897
3063,1603960.6215569503
3064,0.0
2,7, 1, 7, 0,14, 0.00,60.00,Saturday
2695,-5.9900339383074459
1929,18.00000027596751
3063,1652369.5176411318
3064,0.0
2,7, 1, 7, 0,15, 0.00,60.00,Saturday
2695,-5.986511195724002
1929,18.00000017845368
3063,1689966.0810181015
3064,0.0
2,7, 1, 7, 0,16, 0.00,60.00,Saturday
2695,-5.979159346931155
1929,18.00000012075486
3063,1692080.2709420839
3064,0.0
2,7, 1, 7, 0,17, 0.00,60.00,Saturday
2695,-5.9695044072162839
1929,18.00000010549987
3063,1620493.4510610023
3064,0.0
2,7, 1, 7, 0,18, 0.00,60.00,Saturday
2695,-5.961189090470147
1929,18.000000108174669
3063,1518339.5661146318
3064,0.0
2,7, 1, 7, 0,19, 0.00,60.00,Saturday
2695,-6.4323981502637299
1929,18.000000115102769
3063,1416054.031410293
3064,0.0
2,7, 1, 7, 0,20, 0.00,60.00,Saturday
2695,-6.425640629178321
1929,18.000000125056315
3063,1321525.371217869
3064,0.0
2,7, 1, 7, 0,21, 0.00,60.00,Saturday
2695,-6.420043914763702
1929,18.000000138093268
3063,1238246.795324579
3064,0.0
2,7, 1, 7, 0,22, 0.00,60.00,Saturday
2695,-6.415842092457377
1929,18.000000153544368
3063,1171638.7536052264
3064,0.0
2,7, 1, 7, 0,23, 0.00,60.00,Saturday
2695,-6.412999090183635
1929,18.000001402912355
3063,1122761.247895185
3064,0.0
2,7, 1, 7, 0,24, 0.00,60.00,Saturday
2695,-6.411676470013859
1929,18.000031090373189
3063,1090368.5665460297
3064,0.0
2,8, 1, 8, 0, 1, 0.00,60.00,Sunday
2695,-6.411688051814991
1929,18.000035922353157
3063,1079194.908838307
3064,0.0
2,8, 1, 8, 0, 2, 0.00,60.00,Sunday
2695,-6.412127733658266
1929,18.000030480054205
3063,1080997.893875711
3064,0.0
2,8, 1, 8, 0, 3, 0.00,60.00,Sunday
2695,-6.4129965996018039
1929,18.000033672217069
3063,1090327.194399982
3064,0.0
2,8, 1, 8, 0, 4, 0.00,60.00,Sunday
2695,-6.414397181820306
1929,18.000037488843696
3063,1107293.1639412519
3064,0.0
2,8, 1, 8, 0, 5, 0.00,60.00,Sunday
2695,-6.4162352107240789
1929,18.00003105089533
3063,1132873.519980449
3064,0.0
2,8, 1, 8, 0, 6, 0.00,60.00,Sunday
2695,-6.418269201883117
1929,18.00003701844662
3063,1160014.5793982342
3064,0.0
2,8, 1, 8, 0, 7, 0.00,60.00,Sunday
2695,-6.631653773495081
1929,18.00004827502065
3063,1189352.3394475999
3064,0.0
2,8, 1, 8, 0, 8, 0.00,60.00,Sunday
2695,-6.634762201714941
1929,18.000053303488995
3063,1222839.8048011424
3064,0.0
2,8, 1, 8, 0, 9, 0.00,60.00,Sunday
2695,-6.123262188312676
1929,18.000047661143034
3063,1261354.9724519768
3064,0.0
2,8, 1, 8, 0,10, 0.00,60.00,Sunday
2695,-6.125946317806669
1929,18.000034545952866
3063,1303238.5521355249
3064,0.0
2,8, 1, 8, 0,11, 0.00,60.00,Sunday
2695,-6.128326503703376
1929,18.000007014230645
3063,1350063.89393502
3064,0.0
2,8, 1, 8, 0,12, 0.00,60.00,Sunday
2695,-6.130053911843924
1929,18.000000264796176
3063,1391111.5909373186
3064,0.0
2,8, 1, 8, 0,13, 0.00,60.00,Sunday
2695,-6.131501460886441
1929,18.000000839717804
3063,1422528.8816530929
3064,0.0
2,8, 1, 8, 0,14, 0.00,60.00,Sunday
2695,-6.132611624999201
1929,18.000000221890728
3063,1449540.8489537589
3064,0.0
2,8, 1, 8, 0,15, 0.00,60.00,Sunday
2695,-6.132835384606078
1929,18.000000183902278
3063,1466782.2941164114
3064,0.0
2,8, 1, 8, 0,16, 0.00,60.00,Sunday
2695,-6.131833370028367
1929,18.00000016572402
3063,1467559.0052006797
3064,0.0
2,8, 1, 8, 0,17, 0.00,60.00,Sunday
2695,-6.129516286090325
1929,18.0000001540704
3063,1446126.5197388873
3064,0.0
2,8, 1, 8, 0,18, 0.00,60.00,Sunday
2695,-6.126263155271033
1929,18.000000151633456
3063,1406225.4464624227
3064,0.0
2,8, 1, 8, 0,19, 0.00,60.00,Sunday
2695,-6.637552088910084
1929,18.000000159817309
3063,1346299.2276625946
3064,0.0
2,8, 1, 8, 0,20, 0.00,60.00,Sunday
2695,-6.63380965571167
1929,18.000000172060508
3063,1282854.23915635
3064,0.0
2,8, 1, 8, 0,21, 0.00,60.00,Sunday
2695,-6.63096261385271
1929,18.000000182828399
3063,1237359.4791039858
3064,0.0
2,8, 1, 8, 0,22, 0.00,60.00,Sunday
2695,-6.628145694337761
1929,18.000000187630357
3063,1214909.1285623296
3064,0.0
2,8, 1, 8, 0,23, 0.00,60.00,Sunday
2695,-6.624825712582866
1929,18.0000001959381
3063,1196429.116122771
3064,0.0
2,8, 1, 8, 0,24, 0.00,60.00,Sunday
2695,-6.6224069987249509
1929,18.000000219422746
3063,1179656.581230271
3064,0.0
2,9, 1, 9, 0, 1, 0.00,60.00,Monday
2695,-6.6220109532632069
1929,18.000016209536509
3063,1169190.86955
3064,0.0
2,9, 1, 9, 0, 2, 0.00,60.00,Monday
2695,-6.623293158845346
1929,18.000048197276745
3063,1172741.1121625612
3064,0.0
2,9, 1, 9, 0, 3, 0.00,60.00,Monday
2695,-6.625202814333385
1929,18.000049881104347
3063,1190352.0457866728
3064,0.0
2,9, 1, 9, 0, 4, 0.00,60.00,Monday
2695,-6.627342813574901
1929,18.000033781052676
3063,1217731.0585422524
3064,0.0
2,9, 1, 9, 0, 5, 0.00,60.00,Monday
2695,-6.629315730941674
1929,18.00001460377482