Program Version,EnergyPlus, Version 8.7.0-78a111df4a, YMD=2019.06.21 03:07
1,5,Environment Title[],Latitude[deg],Longitude[deg],Time Zone[],Elevation[m]
2,6,Day of Simulation[],Month[],Day of Month[],DST Indicator[1=yes 0=no],Hour[],StartMinute[],EndMinute[],DayType
3,3,Cumulative Day of Simulation[],Month[],Day of Month[],DST Indicator[1=yes 0=no],DayType  ! When Daily Report Variables Requested
4,2,Cumulative Days of Simulation[],Month[]  ! When Monthly Report Variables Requested
5,1,Cumulative Days of Simulation[] ! When Run Period Report Variables Requested
1929,1,THERMAL ZONE: SPACE 201,Zone Air Temperature [C] !Hourly
2695,1,THERMAL ZONE: SPACE 201 PEOPLE,Zone Thermal Comfort Fanger Model PMV [] !Hourly
3063,1,THERMAL ZONE: SPACE 305 PTHP,Zone Packaged Terminal Heat Pump Total Heating Energy [J] !Hourly
3064,1,THERMAL ZONE: SPACE 305 PTHP,Zone Packaged Terminal Heat Pump Total Cooling Energy [J] !Hourly
End of Data Dictionary
1,ANN HTG 99.6% CONDNS DB,  29.58, 106.47,   8.00, 259.10
2,1, 1,21, 0, 1, 0.00,60.00,WinterDesignDay
2695,-6.494100027697567
1929,18.000065948409973
3063,4652458.354070548
3064,0.0
2,1, 1,21, 0, 2, 0.00,60.00,WinterDesignDay
2695,-6.4980144036234839
1929,18.00004985288757
3063,4671526.089151918
3064,0.0
2,1, 1,21, 0, 3, 0.00,60.00,WinterDesignDay
2695,-6.501280407930435
1929,18.000035806171156
3063,4691337.849479118
3064,0.0
2,1, 1,21, 0, 4, 0.00,60.00,WinterDesignDay
2695,-6.504145595940931
1929,18.000030357692418
3063,4709105.087134842
3064,0.0
2,1, 1,21, 0, 5, 0.00,60.00,WinterDesignDay
2695,-6.506868869650421
1929,18.000023935615859
3063,4729335.078658096
3064,0.0
2,1, 1,21, 0, 6, 0.00,60.00,WinterDesignDay
2695,-6.509128222122274
1929,17.9999959219371
3063,4759702.092727989
3064,0.0
2,1, 1,21, 0, 7, 0.00,60.00,WinterDesignDay
2695,-5.677711829953694
1929,17.999927455974246
3063,4798823.013866904
3064,0.0
2,1, 1,21, 0, 8, 0.00,60.00,WinterDesignDay
2695,-5.67482485914498
1929,17.999833328477434
3063,5185312.330136144
3064,0.0
2,1, 1,21, 0, 9, 0.00,60.00,WinterDesignDay
2695,-5.319621325380461
1929,18.000099127264379
3063,6310378.692463774
3064,0.0
2,1, 1,21, 0,10, 0.00,60.00,WinterDesignDay
2695,-5.300806996642553
1929,18.000706537872948
3063,7304556.979154597
3064,0.0
2,1, 1,21, 0,11, 0.00,60.00,WinterDesignDay
2695,-5.288923697085052
1929,18.000900722155433
3063,7021262.973441636
3064,0.0
2,1, 1,21, 0,12, 0.00,60.00,WinterDesignDay
2695,-5.281176961162924
1929,18.000927833103565
3063,6834820.354874802
3064,0.0
2,1, 1,21, 0,13, 0.00,60.00,WinterDesignDay
2695,-5.276946787972613
1929,18.00084191626045
3063,6365992.978982938
3064,0.0
2,1, 1,21, 0,14, 0.00,60.00,WinterDesignDay
2695,-5.2733328092670999
1929,18.000818049632028
3063,6292799.929999517
3064,0.0
2,1, 1,21, 0,15, 0.00,60.00,WinterDesignDay
2695,-5.268691670251965
1929,18.00096349832823
3063,6555749.928835154
3064,0.0
2,1, 1,21, 0,16, 0.00,60.00,WinterDesignDay
2695,-5.26685422521747
1929,18.001090790396593
3063,6543103.641569571
3064,0.0
2,1, 1,21, 0,17, 0.00,60.00,WinterDesignDay
2695,-5.268121562146004
1929,18.001149263266073
3063,6600349.924588479
3064,0.0
2,1, 1,21, 0,18, 0.00,60.00,WinterDesignDay
2695,-5.270475441216959
1929,18.001195776946529
3063,6687286.064464378
3064,0.0
2,1, 1,21, 0,19, 0.00,60.00,WinterDesignDay
2695,-5.615722085295769
1929,18.000683838843839
3063,5222321.860908879
3064,0.0
2,1, 1,21, 0,20, 0.00,60.00,WinterDesignDay
2695,-5.63128372054243
1929,18.00035963845318
3063,5398744.133351309
3064,0.0
2,1, 1,21, 0,21, 0.00,60.00,WinterDesignDay
2695,-5.641590355295051
1929,18.0001891350396
3063,4569422.113256728
3064,0.0
2,1, 1,21, 0,22, 0.00,60.00,WinterDesignDay
2695,-5.649600921545049
1929,18.000115413005429
3063,4613233.24408193
3064,0.0
2,1, 1,21, 0,23, 0.00,60.00,WinterDesignDay
2695,-5.655244616322594
1929,18.00008777746933
3063,4633960.793438901
3064,0.0
2,1, 1,21, 0,24, 0.00,60.00,WinterDesignDay
2695,-5.6598325482961349
1929,18.000075340830337
3063,4647584.930879907
3064,0.0
1,ANN CLG 4% CONDNS DB =>MWB,  29.58, 106.47,   8.00, 259.10
2,1, 7,21, 0, 1, 0.00,60.00,SummerDesignDay
2695,-3.153315153249626
1929,25.99975931897473
3063,0.0
3064,880821.73425943
2,1, 7,21, 0, 2, 0.00,60.00,SummerDesignDay
2695,-3.1635782757060135
1929,25.999830714339713
3063,0.0
3064,848369.9005980217
2,1, 7,21, 0, 3, 0.00,60.00,SummerDesignDay
2695,-3.1715325687195028
1929,25.99987970731082
3063,0.0
3064,821236.1641563666
2,1, 7,21, 0, 4, 0.00,60.00,SummerDesignDay
2695,-3.17800817430874
1929,25.999910387366556
3063,0.0
3064,797861.8896887516
2,1, 7,21, 0, 5, 0.00,60.00,SummerDesignDay
2695,-3.1836035514691098
1929,25.999931954534007
3063,0.0
3064,775649.1959432473
2,1, 7,21, 0, 6, 0.00,60.00,SummerDesignDay
2695,-3.1884606955079124
1929,25.999961084512767
3063,0.0
3064,750299.0514605218
2,1, 7,21, 0, 7, 0.00,60.00,SummerDesignDay
2695,-3.891842988229197
1929,25.999996554252279
3063,0.0
3064,720193.3134989889
2,1, 7,21, 0, 8, 0.00,60.00,SummerDesignDay
2695,-3.8688896468196449
1929,25.999682157367535
3063,0.0
3064,1125136.9017588406
2,1, 7,21, 0, 9, 0.00,60.00,SummerDesignDay
2695,-3.8106501702256199
1929,25.996909335166035
3063,0.0
3064,3787255.9299098059
2,1, 7,21, 0,10, 0.00,60.00,SummerDesignDay
2695,-3.6601138396914818
1929,26.581797519637737
3063,0.0
3064,6870198.511222002
2,1, 7,21, 0,11, 0.00,60.00,SummerDesignDay
2695,-3.546998851436587
1929,26.98576955685226
3063,0.0
3064,6973297.456869042
2,1, 7,21, 0,12, 0.00,60.00,SummerDesignDay
2695,-3.477143816737621
1929,27.28732703408129
3063,0.0
3064,6913898.98696167
2,1, 7,21, 0,13, 0.00,60.00,SummerDesignDay
2695,-3.513801876562956
1929,26.964782964252725
3063,0.0
3064,6569067.035165811
2,1, 7,21, 0,14, 0.00,60.00,SummerDesignDay
2695,-3.520343688996183
1929,27.02040403188315
3063,0.0
3064,6329981.547469835
2,1, 7,21, 0,15, 0.00,60.00,SummerDesignDay
2695,-3.4102791640403669
1929,27.629777281246633
3063,0.0
3064,6660677.960657135
2,1, 7,21, 0,16, 0.00,60.00,SummerDesignDay
2695,-3.3647886644069806
1929,27.676223344453793
3063,0.0
3064,6920680.910739475
2,1, 7,21, 0,17, 0.00,60.00,SummerDesignDay
2695,-3.380396922133698
1929,27.553385131852939
3063,0.0
3064,7013883.064667819
2,1, 7,21, 0,18, 0.00,60.00,SummerDesignDay
2695,-3.4073324178243946
1929,27.378992049475703
3063,0.0
3064,7108937.324053277
2,1, 7,21, 0,19, 0.00,60.00,SummerDesignDay
2695,-3.581479797348532
1929,26.047593918300114
3063,0.0
3064,4159881.5628169567
2,1, 7,21, 0,20, 0.00,60.00,SummerDesignDay
2695,-3.6917159233846914
1929,25.997022683216576
3063,0.0
3064,3390499.7128760206
2,1, 7,21, 0,21, 0.00,60.00,SummerDesignDay
2695,-3.725762695418098
1929,25.998587670800278
3063,0.0
3064,1361078.8402554806
2,1, 7,21, 0,22, 0.00,60.00,SummerDesignDay
2695,-3.777784248230111
1929,25.99917369497216
3063,0.0
3064,1133567.7813505454
2,1, 7,21, 0,23, 0.00,60.00,SummerDesignDay
2695,-3.8091191863938489
1929,25.999475788537568
3063,0.0
3064,1018974.5926255619
2,1, 7,21, 0,24, 0.00,60.00,SummerDesignDay
2695,-3.829679422836208
1929,25.99965971858977
3063,0.0
3064,948961.9729319587
1,RUN PERIOD 1,  29.58, 106.47,   8.00, 259.10
2,1, 1, 1, 0, 1, 0.00,60.00,Holiday
2695,-6.116415679995584
1929,18.000204115864894
3063,1708486.3936340062
3064,0.0
2,1, 1, 1, 0, 2, 0.00,60.00,Holiday
2695,-6.119628504216615
1929,18.000080125121234
3063,1736188.5307643375
3064,0.0
2,1, 1, 1, 0, 3, 0.00,60.00,Holiday
2695,-6.121266162973515
1929,18.00005615363962
3063,1740500.8135284812
3064,0.0
2,1, 1, 1, 0, 4, 0.00,60.00,Holiday
2695,-6.1231055121191
1929,18.00007463386376
3063,1739490.9498050318
3064,0.0
2,1, 1, 1, 0, 5, 0.00,60.00,Holiday
2695,-6.126305184325208
1929,18.000128097449019
3063,1734209.5944879023
3064,0.0
2,1, 1, 1, 0, 6, 0.00,60.00,Holiday
2695,-6.13318055523433
1929,18.000164366751567
3063,1674205.821869152
3064,0.0
2,1, 1, 1, 0, 7, 0.00,60.00,Holiday
2695,-6.539518725723347
1929,18.000123929845058
3063,1721114.2854135708
3064,0.0
2,1, 1, 1, 0, 8, 0.00,60.00,Holiday
2695,-6.548707119786858
1929,18.00007992423174
3063,1781360.4183462046
3064,0.0
2,1, 1, 1, 0, 9, 0.00,60.00,Holiday
2695,-6.054857716182899
1929,18.00004028604131
3063,1840686.9708443373
3064,0.0
2,1, 1, 1, 0,10, 0.00,60.00,Holiday
2695,-6.0576916690592779
1929,18.000009013740699
3063,1904314.5857328966
3064,0.0
2,1, 1, 1, 0,11, 0.00,60.00,Holiday
2695,-6.058623172879986
1929,18.000005593031017
3063,1946936.4682616234
3064,0.0
2,1, 1, 1, 0,12, 0.00,60.00,Holiday
2695,-6.059293077321183
1929,18.000002279343574
3063,1968399.3205958578
3064,0.0
2,1, 1, 1, 0,13, 0.00,60.00,Holiday
2695,-6.060070928964314
1929,18.00000066751713
3063,2010635.6714943778
3064,0.0
2,1, 1, 1, 0,14, 0.00,60.00,Holiday
2695,-6.058856468555561
1929,18.000000553337104
3063,2050468.5552210727
3064,0.0
2,1, 1, 1, 0,15, 0.00,60.00,Holiday
2695,-6.055304655737232
1929,18.000000446019134
3063,2074953.775525843
3064,0.0
2,1, 1, 1, 0,16, 0.00,60.00,Holiday
2695,-6.0492625960078929
1929,18.00000034754257
3063,2086486.9416730954
3064,0.0
2,1, 1, 1, 0,17, 0.00,60.00,Holiday
2695,-6.040648417531437
1929,18.000000271405566
3063,2082523.8457934585
3064,0.0
2,1, 1, 1, 0,18, 0.00,60.00,Holiday
2695,-6.029883514155617
1929,18.00000022398558
3063,2057042.4564992898
3064,0.0
2,1, 1, 1, 0,19, 0.00,60.00,Holiday
2695,-6.511701414877443
1929,18.00000019858256
3063,2007605.1424639936
3064,0.0
2,1, 1, 1, 0,20, 0.00,60.00,Holiday
2695,-6.499061574403618
1929,18.000000202165375
3063,1917880.692118554
3064,0.0
2,1, 1, 1, 0,21, 0.00,60.00,Holiday
2695,-6.491864055119284
1929,18.00005115687515
3063,1804689.8785853089
3064,0.0
2,1, 1, 1, 0,22, 0.00,60.00,Holiday
2695,-6.491960812284813
1929,18.0002805647491
3063,1719437.718668439
3064,0.0
2,1, 1, 1, 0,23, 0.00,60.00,Holiday
2695,-6.497233592670832
1929,18.000374949293847
3063,1681129.8576547495
3064,0.0
2,1, 1, 1, 0,24, 0.00,60.00,Holiday
2695,-6.504574536374381
1929,18.000368325056326
3063,1671869.33578697
3064,0.0
2,2, 1, 2, 0, 1, 0.00,60.00,Holiday
2695,-6.511533495283875
1929,18.000336762950089
3063,1672137.2489885884
3064,0.0
2,2, 1, 2, 0, 2, 0.00,60.00,Holiday
2695,-6.51858176721515
1929,18.000276397249377
3063,1686059.0256436975
3064,0.0
2,2, 1, 2, 0, 3, 0.00,60.00,Holiday
2695,-6.525031594920807
1929,18.000201116967707
3063,1708978.5619852972
3064,0.0
2,2, 1, 2, 0, 4, 0.00,60.00,Holiday
2695,-6.5301017611870268
1929,18.000142438920198
3063,1731331.0656972267
3064,0.0
2,2, 1, 2, 0, 5, 0.00,60.00,Holiday
2695,-6.534239438604917
1929,18.000103088451227
3063,1753492.9937998257
3064,0.0
2,2, 1, 2, 0, 6, 0.00,60.00,Holiday
2695,-6.537849204946092
1929,18.00007685510568
3063,1777423.4321630607
3064,0.0
2,2, 1, 2, 0, 7, 0.00,60.00,Holiday
2695,-6.641571849725763
1929,18.000066027419775
3063,1801165.2258942319
3064,0.0
2,2, 1, 2, 0, 8, 0.00,60.00,Holiday
2695,-6.644928848437456
1929,18.00005098695708
3063,1830335.2941472785
3064,0.0
2,2, 1, 2, 0, 9, 0.00,60.00,Holiday
2695,-6.130720482911791
1929,18.000004900275678
3063,1880266.0282688577
3064,0.0
2,2, 1, 2, 0,10, 0.00,60.00,Holiday
2695,-6.1309405260608769
1929,18.00000052842239
3063,1934372.150093163
3064,0.0
2,2, 1, 2, 0,11, 0.00,60.00,Holiday
2695,-6.129587406002796
1929,18.000000470680737
3063,1958372.2470398348
3064,0.0
2,2, 1, 2, 0,12, 0.00,60.00,Holiday
2695,-6.128607644855339
1929,18.000000429144554
3063,1977154.3763988459
3064,0.0
2,2, 1, 2, 0,13, 0.00,60.00,Holiday
2695,-6.1277191925988749
1929,18.000000396261386
3063,1994168.8873459434
3064,0.0
2,2, 1, 2, 0,14, 0.00,60.00,Holiday
2695,-6.126621777392174
1929,18.000000359628026
3063,2007396.0372469053
3064,0.0
2,2, 1, 2, 0,15, 0.00,60.00,Holiday
2695,-6.124365207443397
1929,18.00000031245826
3063,2022728.9638769606
3064,0.0
2,2, 1, 2, 0,16, 0.00,60.00,Holiday
2695,-6.119766183176029
1929,18.000000268971779
3063,2025693.3052485954
3064,0.0
2,2, 1, 2, 0,17, 0.00,60.00,Holiday
2695,-6.113326105706586
1929,18.000000255613896
3063,1978622.548501007
3064,0.0
2,2, 1, 2, 0,18, 0.00,60.00,Holiday
2695,-6.107994568625533
1929,18.000000270973584
3063,1902659.9559891322
3064,0.0
2,2, 1, 2, 0,19, 0.00,60.00,Holiday
2695,-6.616881266965514
1929,18.000022151958615
3063,1834495.8038547575
3064,0.0
2,2, 1, 2, 0,20, 0.00,60.00,Holiday
2695,-6.614996211297903
1929,18.000091344158624
3063,1778348.5543742534
3064,0.0
2,2, 1, 2, 0,21, 0.00,60.00,Holiday
2695,-6.614620200479507
1929,18.000089335017234
3063,1748531.9507046689
3064,0.0
2,2, 1, 2, 0,22, 0.00,60.00,Holiday
2695,-6.614112867533489
1929,18.000020467473879
3063,1745723.8049254935
3064,0.0
2,2, 1, 2, 0,23, 0.00,60.00,Holiday
2695,-6.6125636874804079
1929,18.000000372254794
3063,1739662.842586455
3064,0.0
2,2, 1, 2, 0,24, 0.00,60.00,Holiday
2695,-6.611609149337263
1929,18.0000418506968
3063,1715530.0897547615
3064,0.0
2,3, 1, 3, 0, 1, 0.00,60.00,Holiday
2695,-6.613427636907996
1929,18.000112020680257
3063,1698260.3593553096
3064,0.0
2,3, 1, 3, 0, 2, 0.00,60.00,Holiday
2695,-6.617624216485788
1929,18.000203268273414
3063,1678394.563444497
3064,0.0
2,3, 1, 3, 0, 3, 0.00,60.00,Holiday
2695,-6.6252979547099459
1929,18.00024400334034
3063,1631916.4492632712
3064,0.0
2,3, 1, 3, 0, 4, 0.00,60.00,Holiday
2695,-6.638550884059758
1929,18.00015890445552
3063,1671646.857837075
3064,0.0
2,3, 1, 3, 0, 5, 0.00,60.00,Holiday
2695,-6.648215965731974
1929,18.00008272540272
3063,1747483.0422529155
3064,0.0
2,3, 1, 3, 0, 6, 0.00,60.00,Holiday
2695,-6.653890032740559
1929,18.000040834432626
3063,1798937.7544029265
3064,0.0
2,3, 1, 3, 0, 7, 0.00,60.00,Holiday
2695,-6.559353976767846
1929,18.000007572787014
3063,1867832.494123574
3064,0.0
2,3, 1, 3, 0, 8, 0.00,60.00,Holiday
2695,-6.559862097011469
1929,18.00000360148662
3063,1892412.1970835864
3064,0.0
2,3, 1, 3, 0, 9, 0.00,60.00,Holiday
2695,-6.059981321188914
1929,18.000000701989725
3063,1924076.5888828978
3064,0.0
2,3, 1, 3, 0,10, 0.00,60.00,Holiday
2695,-6.060767401644957
1929,18.00000065812998
3063,1958034.8581022397
3064,0.0
2,3, 1, 3, 0,11, 0.00,60.00,Holiday
2695,-6.06174954092603
1929,18.00000062504246
3063,1993159.5807682803
3064,0.0
2,3, 1, 3, 0,12, 0.00,60.00,Holiday
2695,-6.062683129870273
1929,18.00000059447432
3063,2025261.770359666
3064,0.0
2,3, 1, 3, 0,13, 0.00,60.00,Holiday
2695,-6.06387281109226
1929,18.000000573215727
3063,2055781.3181902213
3064,0.0
2,3, 1, 3, 0,14, 0.00,60.00,Holiday
2695,-6.065089124121393
1929,18.000000557764399
3063,2086329.1159180287
3064,0.0
2,3, 1, 3, 0,15, 0.00,60.00,Holiday
2695,-6.0661492125192
1929,18.00000054904864
3063,2116353.3568496287
3064,0.0
2,3, 1, 3, 0,16, 0.00,60.00,Holiday
2695,-6.066816489016486
1929,18.000000544700403
3063,2142992.133117196
3064,0.0
2,3, 1, 3, 0,17, 0.00,60.00,Holiday
2695,-6.066981023520396
1929,18.00000053943916
3063,2171434.4707506976
3064,0.0
2,3, 1, 3, 0,18, 0.00,60.00,Holiday
2695,-6.066293305079262
1929,18.000000540163506
3063,2192236.3901243235
3064,0.0
2,3, 1, 3, 0,19, 0.00,60.00,Holiday
2695,-6.5681589765708969
1929,18.00000053832675
3063,2209131.473311824
3064,0.0
2,3, 1, 3, 0,20, 0.00,60.00,Holiday
2695,-6.566082455977962
1929,18.000000544289596
3063,2222079.71531544
3064,0.0
2,3, 1, 3, 0,21, 0.00,60.00,Holiday
2695,-6.5636454161192578
1929,18.000000553171188
3063,2228325.595198617
3064,0.0
2,3, 1, 3, 0,22, 0.00,60.00,Holiday
2695,-6.561395223769094
1929,18.000000563935079
3063,2229218.6955885158
3064,0.0
2,3, 1, 3, 0,23, 0.00,60.00,Holiday
2695,-6.559775609641932
1929,18.000000580289848
3063,2231240.969896925
3064,0.0
2,3, 1, 3, 0,24, 0.00,60.00,Holiday
2695,-6.558834872766475
1929,18.000000597125355
3063,2229069.25135614
3064,0.0
2,4, 1, 4, 0, 1, 0.00,60.00,Wednesday
2695,-6.558891697354511
1929,18.000000614535403
3063,2235444.784708276
3064,0.0
2,4, 1, 4, 0, 2, 0.00,60.00,Wednesday
2695,-6.559219074142344
1929,18.000001910697379
3063,2239809.627328194
3064,0.0
2,4, 1, 4, 0, 3, 0.00,60.00,Wednesday
2695,-6.560068076554722
1929,18.00000137343069
3063,2249518.860844351
3064,0.0
2,4, 1, 4, 0, 4, 0.00,60.00,Wednesday
2695,-6.560772868874717
1929,18.000000670181529
3063,2262902.90945093
3064,0.0
2,4, 1, 4, 0, 5, 0.00,60.00,Wednesday
2695,-6.561106799931089
1929,18.000000681051277
3063,2278886.746953835
3064,0.0
2,4, 1, 4, 0, 6, 0.00,60.00,Wednesday
2695,-6.560881845035941
1929,18.00000069456976
3063,2289544.017545694
3064,0.0
2,4, 1, 4, 0, 7, 0.00,60.00,Wednesday
2695,-6.690262219586288
1929,18.000000706022126
3063,2294939.1877103
3064,0.0
2,4, 1, 4, 0, 8, 0.00,60.00,Wednesday
2695,-6.688715095115175
1929,18.000025313293287
3063,2291239.0718564207
3064,0.0
2,4, 1, 4, 0, 9, 0.00,60.00,Wednesday
2695,-6.152164152689839
1929,18.00020551648087
3063,2200353.4859625527
3064,0.0
2,4, 1, 4, 0,10, 0.00,60.00,Wednesday
2695,-6.134668405986084
1929,18.000420017834036
3063,2045715.6129258115
3064,0.0
2,4, 1, 4, 0,11, 0.00,60.00,Wednesday
2695,-6.128668347011303
1929,18.000510124405527
3063,1958231.1234485238
3064,0.0
2,4, 1, 4, 0,12, 0.00,60.00,Wednesday
2695,-6.129612627945934
1929,18.000489378594833
3063,1898374.8745819962
3064,0.0
2,4, 1, 4, 0,13, 0.00,60.00,Wednesday
2695,-6.131428528409244
1929,18.00047529887692
3063,1863323.4343529437
3064,0.0
2,4, 1, 4, 0,14, 0.00,60.00,Wednesday
2695,-6.132036764886293
1929,18.000411217875408
3063,1778185.3652952824
3064,0.0
2,4, 1, 4, 0,15, 0.00,60.00,Wednesday
2695,-6.126597884126178
1929,18.000292622036836
3063,1572867.6438465354
3064,0.0
2,4, 1, 4, 0,16, 0.00,60.00,Wednesday
2695,-6.1160909052554539
1929,18.000224543144733
3063,1405313.6923576934
3064,0.0
2,4, 1, 4, 0,17, 0.00,60.00,Wednesday
2695,-6.105397556644878
1929,18.000223173826723
3063,1318292.9243410649
3064,0.0
2,4, 1, 4, 0,18, 0.00,60.00,Wednesday
2695,-6.099494751053393
1929,18.000247401127326
3063,1321178.8262097408
3064,0.0
2,4, 1, 4, 0,19, 0.00,60.00,Wednesday
2695,-6.61916096367507
1929,18.000403221488268
3063,1792803.3990625865
3064,0.0
2,4, 1, 4, 0,20, 0.00,60.00,Wednesday
2695,-6.631320933344707
1929,18.000275175849074
3063,1853869.006097559
3064,0.0
2,4, 1, 4, 0,21, 0.00,60.00,Wednesday
2695,-6.640052803231609
1929,18.000255370937468
3063,1975580.0729024362
3064,0.0
2,4, 1, 4, 0,22, 0.00,60.00,Wednesday
2695,-6.6468213747941899
1929,18.000192489037148
3063,1991503.9529738227
3064,0.0
2,4, 1, 4, 0,23, 0.00,60.00,Wednesday
2695,-6.651907222467133
1929,18.000147748656589
3063,1999351.1952892976
3064,0.0
2,4, 1, 4, 0,24, 0.00,60.00,Wednesday
2695,-6.656233132672082
1929,18.000131252275357
3063,2002130.9429717467
3064,0.0
2,5, 1, 5, 0, 1, 0.00,60.00,Thursday
2695,-6.660918707125298
1929,18.00011855401393
3063,2008593.7874796689
3064,0.0
2,5, 1, 5, 0, 2, 0.00,60.00,Thursday
2695,-6.665243802148627
1929,18.000112629430175
3063,2016155.4781931935
3064,0.0
2,5, 1, 5, 0, 3, 0.00,60.00,Thursday
2695,-6.6692707443256229
1929,18.00012710374569
3063,2020339.2579027019
3064,0.0
2,5, 1, 5, 0, 4, 0.00,60.00,Thursday
2695,-6.673894347920772
1929,18.00015847994268
3063,2021967.9087671275
3064,0.0
2,5, 1, 5, 0, 5, 0.00,60.00,Thursday
2695,-6.6792639399428179
1929,18.000163725559685
3063,2033131.3676400935
3064,0.0
2,5, 1, 5, 0, 6, 0.00,60.00,Thursday
2695,-6.68456341918829
1929,18.00015088553582
3063,2048592.6514897077
3064,0.0
2,5, 1, 5, 0, 7, 0.00,60.00,Thursday
2695,-6.701346093399891
1929,18.00016309692485
3063,2054916.325333735
3064,0.0
2,5, 1, 5, 0, 8, 0.00,60.00,Thursday
2695,-6.7054441618803379
1929,18.000155598805209
3063,2067367.560527955
3064,0.0
2,5, 1, 5, 0, 9, 0.00,60.00,Thursday
2695,-6.170449366997413
1929,18.00022603148686
3063,2000690.082998971
3064,0.0
2,5, 1, 5, 0,10, 0.00,60.00,Thursday
2695,-6.1530469819307369
1929,18.000365715906616
3063,1859186.7087696708
3064,0.0
2,5, 1, 5, 0,11, 0.00,60.00,Thursday
2695,-6.143373272737544
1929,18.00042266513758
3063,1766867.830632357
3064,0.0
2,5, 1, 5, 0,12, 0.00,60.00,Thursday
2695,-6.139524345055993
1929,18.00041588480578
3063,1704609.4996942622
3064,0.0
2,5, 1, 5, 0,13, 0.00,60.00,Thursday
2695,-6.137578497947419
1929,18.000390183273976
3063,1684822.4732404652
3064,0.0
2,5, 1, 5, 0,14, 0.00,60.00,Thursday
2695,-6.1335931679384478
1929,18.000364196954206
3063,1621834.7772642519
3064,0.0
2,5, 1, 5, 0,15, 0.00,60.00,Thursday
2695,-6.127989085869262
1929,18.00032030750922
3063,1485952.8060127495
3064,0.0
2,5, 1, 5, 0,16, 0.00,60.00,Thursday
2695,-6.122775818192182
1929,18.000295134033807
3063,1392448.4614572684
3064,0.0
2,5, 1, 5, 0,17, 0.00,60.00,Thursday
2695,-6.118128262610867
1929,18.00026255680385
3063,1299337.9501368893
3064,0.0
2,5, 1, 5, 0,18, 0.00,60.00,Thursday
2695,-6.113679900558483
1929,18.000237199158474
3063,1214411.4536899829
3064,0.0
2,5, 1, 5, 0,19, 0.00,60.00,Thursday
2695,-6.636082578912341
1929,18.000375995950127
3063,1614699.6478979816
3064,0.0
2,5, 1, 5, 0,20, 0.00,60.00,Thursday
2695,-6.648725516493904
1929,18.00025905009116
3063,1652479.1234278889
3064,0.0
2,5, 1, 5, 0,21, 0.00,60.00,Thursday
2695,-6.658061123728558
1929,18.00026800222383
3063,1822386.5319321845
3064,0.0
2,5, 1, 5, 0,22, 0.00,60.00,Thursday
2695,-6.665657387366932
1929,18.000234728185168
3063,1837831.8855535072
3064,0.0
2,5, 1, 5, 0,23, 0.00,60.00,Thursday
2695,-6.672182841725789
1929,18.000186618877135
3063,1854601.914575542
3064,0.0
2,5, 1, 5, 0,24, 0.00,60.00,Thursday
2695,-6.677251628968004
1929,18.00009247497712
3063,1884378.8976373776
3064,0.0
2,6, 1, 6, 0, 1, 0.00,60.00,Friday
2695,-6.679662969505114
1929,18.000037901825775
3063,1900937.9531626674
3064,0.0
2,6, 1, 6, 0, 2, 0.00,60.00,Friday
2695,-6.681200057866845
1929,18.000004673201489
3063,1919243.4224490056
3064,0.0
2,6, 1, 6, 0, 3, 0.00,60.00,Friday
2695,-6.681683194527746
1929,18.000000504035943
3063,1939470.0577685186
3064,0.0
2,6, 1, 6, 0, 4, 0.00,60.00,Friday
2695,-6.681212439518837
1929,18.000000521732678
3063,1955490.7405960439
3064,0.0
2,6, 1, 6, 0, 5, 0.00,60.00,Friday
2695,-6.680230328605593
1929,18.00000053321431
3063,1968490.0077189257
3064,0.0
2,6, 1, 6, 0, 6, 0.00,60.00,Friday
2695,-6.679126647276521
1929,18.00000053977433
3063,1981187.3916454628
3064,0.0
2,6, 1, 6, 0, 7, 0.00,60.00,Friday
2695,-6.675381785837874
1929,18.000000546434547
3063,1982706.2182905533
3064,0.0
2,6, 1, 6, 0, 8, 0.00,60.00,Friday
2695,-6.673994962879754
1929,18.000019289853446
3063,1977423.8922837068
3064,0.0
2,6, 1, 6, 0, 9, 0.00,60.00,Friday
2695,-6.140494204479221
1929,18.0001669056911
3063,1857442.6600874228
3064,0.0
2,6, 1, 6, 0,10, 0.00,60.00,Friday
2695,-6.12123952379434
1929,18.000296958620085
3063,1578757.3867898158
3064,0.0
2,6, 1, 6, 0,11, 0.00,60.00,Friday
2695,-6.112335767688992
1929,18.00030624419378
3063,1388203.139153069
3064,0.0
2,6, 1, 6, 0,12, 0.00,60.00,Friday
2695,-6.109844906996902
1929,18.00023950989291
3063,1223333.9016164535
3064,0.0
2,6, 1, 6, 0,13, 0.00,60.00,Friday
2695,-6.108282875005457
1929,18.000211043189255
3063,1151030.170630084
3064,0.0
2,6, 1, 6, 0,14, 0.00,60.00,Friday
2695,-6.10511082906205
1929,18.00015813213984
3063,965777.8490488953
3064,0.0
2,6, 1, 6, 0,15, 0.00,60.00,Friday
2695,-6.076483178408702
1929,18.15374100908889
3063,536599.1638979655
3064,0.0
2,6, 1, 6, 0,16, 0.00,60.00,Friday
2695,-6.011729555750715
1929,18.41760261545754
3063,241092.744916833
3064,0.0
2,6, 1, 6, 0,17, 0.00,60.00,Friday
2695,-5.958989846676576
1929,18.56020291297732
3063,89494.51009642678
3064,0.0
2,6, 1, 6, 0,18, 0.00,60.00,Friday
2695,-5.937497637295455
1929,18.566881418374906
3063,79860.94152534189
3064,0.0
2,6, 1, 6, 0,19, 0.00,60.00,Friday
2695,-6.504219974864658
1929,18.024296544771027
3063,1017535.416938341
3064,0.0
2,6, 1, 6, 0,20, 0.00,60.00,Friday
2695,-6.536022356638095
1929,18.00015121426681
3063,1024276.3234166866
3064,0.0
2,6, 1, 6, 0,21, 0.00,60.00,Friday
2695,-6.540291751677678
1929,18.000233056685233
3063,1305769.0358785338
3064,0.0
2,6, 1, 6, 0,22, 0.00,60.00,Friday
2695,-6.541828075197949
1929,18.000198894033998
3063,1280018.5743610468
3064,0.0
2,6, 1, 6, 0,23, 0.00,60.00,Friday
2695,-6.543524599874934
1929,18.000188897002919
3063,1256523.2952057552
3064,0.0
2,6, 1, 6, 0,24, 0.00,60.00,Friday
2695,-6.546269671360778
1929,18.000189694346955
3063,1241238.7504429112
3064,0.0
2,7, 1, 7, 0, 1, 0.00,60.00,Saturday
2695,-6.550230129565475
1929,18.000181738117847
3063,1238614.0275732573
3064,0.0
2,7, 1, 7, 0, 2, 0.00,60.00,Saturday
2695,-6.554959022775237
1929,18.000186463436923
3063,1240129.5425820612
3064,0.0
2,7, 1, 7, 0, 3, 0.00,60.00,Saturday
2695,-6.560695771974774
1929,18.000203817110795
3063,1244562.5105524029
3064,0.0
2,7, 1, 7, 0, 4, 0.00,60.00,Saturday
2695,-6.567773940658859
1929,18.000227278075927
3063,1252026.5186427849
3064,0.0
2,7, 1, 7, 0, 5, 0.00,60.00,Saturday
2695,-6.576439605494039
1929,18.000257283148274
3063,1239713.0837762037
3064,0.0
2,7, 1, 7, 0, 6, 0.00,60.00,Saturday
2695,-6.59240322531821
1929,18.000230066684595
3063,1193885.9812604376
3064,0.0
2,7, 1, 7, 0, 7, 0.00,60.00,Saturday
2695,-6.405073520112418
1929,18.000159128089796
3063,1273126.1503394503
3064,0.0
2,7, 1, 7, 0, 8, 0.00,60.00,Saturday
2695,-6.419665710702318
1929,18.00009834386007
3063,1352660.849850251
3064,0.0
2,7, 1, 7, 0, 9, 0.00,60.00,Saturday
2695,-5.95351547513008
1929,18.000060697339938
3063,1416739.3206805678
3064,0.0
2,7, 1, 7, 0,10, 0.00,60.00,Saturday
2695,-5.959994974918089
1929,18.000046518979248
3063,1467786.059359968
3064,0.0
2,7, 1, 7, 0,11, 0.00,60.00,Saturday
2695,-5.965594195425193
1929,18.000034295544695
3063,1523923.9217185302
3064,0.0
2,7, 1, 7, 0,12, 0.00,60.00,Saturday
2695,-5.970055080739381
1929,18.00002394729403
3063,1575542.2853192229
3064,0.0
2,7, 1, 7, 0,13, 0.00,60.00,Saturday
2695,-5.972832219149246
1929,18.000001901026267
3063,1622746.1090338438
3064,0.0
2,7, 1, 7, 0,14, 0.00,60.00,Saturday
2695,-5.972969962473736
1929,18.00000021793771
3063,1661402.3011815923
3064,0.0
2,7, 1, 7, 0,15, 0.00,60.00,Saturday
2695,-5.969460727896852
1929,18.000000139126393
3063,1686458.257328189
3064,0.0
2,7, 1, 7, 0,16, 0.00,60.00,Saturday
2695,-5.961265774376919
1929,18.00000009107752
3063,1675789.6257188258
3064,0.0
2,7, 1, 7, 0,17, 0.00,60.00,Saturday
2695,-5.949794712898282
1929,18.00000007536177
3063,1595612.4994839843
3064,0.0
2,7, 1, 7, 0,18, 0.00,60.00,Saturday
2695,-5.93855394443525
1929,18.00000007206149
3063,1492462.121124517
3064,0.0
2,7, 1, 7, 0,19, 0.00,60.00,Saturday
2695,-6.399364097673577
1929,18.000000070509697
3063,1397998.288218801
3064,0.0
2,7, 1, 7, 0,20, 0.00,60.00,Saturday
2695,-6.387589910280916
1929,18.000000070043148
3063,1317722.4859738197
3064,0.0
2,7, 1, 7, 0,21, 0.00,60.00,Saturday
2695,-6.3772078507774749
1929,18.000000070897
3063,1251706.5320240884
3064,0.0
2,7, 1, 7, 0,22, 0.00,60.00,Saturday
2695,-6.368872016801963
1929,18.000000073181899
3063,1201292.9955650042
3064,0.0
2,7, 1, 7, 0,23, 0.00,60.00,Saturday
2695,-6.362782028647671
1929,18.000000076401837
3063,1165185.3150946839
3064,0.0
2,7, 1, 7, 0,24, 0.00,60.00,Saturday
2695,-6.358982305182938
1929,18.00000214974742
3063,1141920.0805789845
3064,0.0
2,8, 1, 8, 0, 1, 0.00,60.00,Sunday
2695,-6.35718376388985
1929,18.000005025808194
3063,1137215.077686897
3064,0.0
2,8, 1, 8, 0, 2, 0.00,60.00,Sunday
2695,-6.356590713455567
1929,18.000006156349796
3063,1143265.2318496616
3064,0.0
2,8, 1, 8, 0, 3, 0.00,60.00,Sunday
2695,-6.357013235186668
1929,18.00001208414395
3063,1155042.2187161563
3064,0.0
2,8, 1, 8, 0, 4, 0.00,60.00,Sunday
2695,-6.35838408629025
1929,18.000018192764548
3063,1173237.0425668664
3064,0.0
2,8, 1, 8, 0, 5, 0.00,60.00,Sunday
2695,-6.360536966112401
1929,18.00001740850342
3063,1199359.2306187177
3064,0.0
2,8, 1, 8, 0, 6, 0.00,60.00,Sunday
2695,-6.363209256633078
1929,18.000023995896524
3063,1226078.5380291092
3064,0.0
2,8, 1, 8, 0, 7, 0.00,60.00,Sunday
2695,-6.575575041295526
1929,18.000034542925169
3063,1254499.1444654864
3064,0.0
2,8, 1, 8, 0, 8, 0.00,60.00,Sunday
2695,-6.579608254921047
1929,18.000041287512148
3063,1286840.0362808947
3064,0.0
2,8, 1, 8, 0, 9, 0.00,60.00,Sunday
2695,-6.07980668848802
1929,18.000040459463496
3063,1324088.5116523337
3064,0.0
2,8, 1, 8, 0,10, 0.00,60.00,Sunday
2695,-6.0835161680574709
1929,18.00003322383736
3063,1364542.5629383999
3064,0.0
2,8, 1, 8, 0,11, 0.00,60.00,Sunday
2695,-6.087094576292941
1929,18.000011467115227
3063,1409920.3989108005
3064,0.0
2,8, 1, 8, 0,12, 0.00,60.00,Sunday
2695,-6.090203501749296
1929,18.00000014774094
3063,1449051.0170809769
3064,0.0
2,8, 1, 8, 0,13, 0.00,60.00,Sunday
2695,-6.092971140666832
1929,18.000003928431086
3063,1477764.4745096775
3064,0.0
2,8, 1, 8, 0,14, 0.00,60.00,Sunday
2695,-6.095230583416458
1929,18.00000095607031
3063,1501191.8498225336
3064,0.0
2,8, 1, 8, 0,15, 0.00,60.00,Sunday
2695,-6.096377404743412
1929,18.000000107715786
3063,1513895.6966925546
3064,0.0
2,8, 1, 8, 0,16, 0.00,60.00,Sunday
2695,-6.095847804937018
1929,18.000000097081935
3063,1509796.072617585
3064,0.0
2,8, 1, 8, 0,17, 0.00,60.00,Sunday
2695,-6.093391091431468
1929,18.000000088876026
3063,1484851.5443963973
3064,0.0
2,8, 1, 8, 0,18, 0.00,60.00,Sunday
2695,-6.089348112869661
1929,18.000000084887846
3063,1445233.9183360213
3064,0.0
2,8, 1, 8, 0,19, 0.00,60.00,Sunday
2695,-6.58979158743114
1929,18.000000085814749
3063,1390651.31172997
3064,0.0
2,8, 1, 8, 0,20, 0.00,60.00,Sunday
2695,-6.583685039897085
1929,18.000000088063385
3063,1336892.3617758405
3064,0.0
2,8, 1, 8, 0,21, 0.00,60.00,Sunday
2695,-6.578536489283681
1929,18.000000089500884
3063,1302499.713930477
3064,0.0
2,8, 1, 8, 0,22, 0.00,60.00,Sunday
2695,-6.574217143068778
1929,18.000000088806336
3063,1290010.4112263795
3064,0.0
2,8, 1, 8, 0,23, 0.00,60.00,Sunday
2695,-6.570437912621407
1929,18.000000091019108
3063,1278211.0709110883
3064,0.0
2,8, 1, 8, 0,24, 0.00,60.00,Sunday
2695,-6.567993364086621
1929,18.00000010166676
3063,1265094.8215820718
3064,0.0
2,9, 1, 9, 0, 1, 0.00,60.00,Monday
2695,-6.567621125932089
1929,18.000002522076067
3063,1256293.0090342337
3064,0.0
2,9, 1, 9, 0, 2, 0.00,60.00,Monday
2695,-6.568865365946131
1929,18.000019462536917
3063,1260780.763564327
3064,0.0
2,9, 1, 9, 0, 3, 0.00,60.00,Monday
2695,-6.570943792261602
1929,18.000026155069553
3063,1278876.625200258
3064,0.0
2,9, 1, 9, 0, 4, 0.00,60.00,Monday
2695,-6.573621734014968
1929,18.000019689592823
3063,1306197.5175206217
3064,0.0
2,9, 1, 9, 0, 5, 0.00,60.00,Monday
2695,-6.576524126070184
1929,18.000008996037569