Program Version,EnergyPlus, Version 8.7.0-78a111df4a, YMD=2019.05.27 05:15
1,5,Environment Title[],Latitude[deg],Longitude[deg],Time Zone[],Elevation[m]
2,6,Day of Simulation[],Month[],Day of Month[],DST Indicator[1=yes 0=no],Hour[],StartMinute[],EndMinute[],DayType
3,3,Cumulative Day of Simulation[],Month[],Day of Month[],DST Indicator[1=yes 0=no],DayType  ! When Daily Report Variables Requested
4,2,Cumulative Days of Simulation[],Month[]  ! When Monthly Report Variables Requested
5,1,Cumulative Days of Simulation[] ! When Run Period Report Variables Requested
4826,1,BEDROOM2.2,Zone Ideal Loads Zone Total Heating Energy [J] !Hourly
4827,1,BEDROOM2.2,Zone Ideal Loads Zone Total Cooling Energy [J] !Hourly
4973,1,BEDROOM2.2,Zone Thermal Comfort Fanger Model PMV [] !Hourly
End of Data Dictionary
1,RUNPERIOD,  29.58, 106.47,   8.00, 259.10
2,1, 1, 1, 0, 1, 0.00,60.00,Thursday
4973,-1.1445100238430524
4826,2749170.9775754699
4827,9.748021057021106e-8
2,1, 1, 1, 0, 2, 0.00,60.00,Thursday
4973,-1.1359924912671942
4826,2750476.672418722
4827,5.199162004498703
2,1, 1, 1, 0, 3, 0.00,60.00,Thursday
4973,-1.1274256680623532
4826,2679990.942076966
4827,1.5296564015443438e-7
2,1, 1, 1, 0, 4, 0.00,60.00,Thursday
4973,-1.1204605201200569
4826,2643690.0987202797
4827,8.021743269637227e-8
2,1, 1, 1, 0, 5, 0.00,60.00,Thursday
4973,-1.1170421056474527
4826,2659903.175486076
4827,1.0129497240995988e-7
2,1, 1, 1, 0, 6, 0.00,60.00,Thursday
4973,-1.1168612754769783
4826,2682637.428364172
4827,1.3025100997765549e-7
2,1, 1, 1, 0, 7, 0.00,60.00,Thursday
4973,-1.1188762236167218
4826,2701059.8429705279
4827,4.0824943425832319e-8
2,1, 1, 1, 0, 8, 0.00,60.00,Thursday
4973,-1.7722069494365125
4826,0.0
4827,0.0
2,1, 1, 1, 0, 9, 0.00,60.00,Thursday
4973,-2.1942404470832188
4826,0.0
4827,0.0
2,1, 1, 1, 0,10, 0.00,60.00,Thursday
4973,-2.234635649412965
4826,0.0
4827,0.0
2,1, 1, 1, 0,11, 0.00,60.00,Thursday
4973,-2.2439259633654968
4826,0.0
4827,0.0
2,1, 1, 1, 0,12, 0.00,60.00,Thursday
4973,-2.241899130902403
4826,0.0
4827,0.0
2,1, 1, 1, 0,13, 0.00,60.00,Thursday
4973,-2.2271633554220626
4826,0.0
4827,0.0
2,1, 1, 1, 0,14, 0.00,60.00,Thursday
4973,-2.1943271421511816
4826,0.0
4827,0.0
2,1, 1, 1, 0,15, 0.00,60.00,Thursday
4973,-2.151041692505717
4826,0.0
4827,0.0
2,1, 1, 1, 0,16, 0.00,60.00,Thursday
4973,-2.0925822658568147
4826,0.0
4827,0.0
2,1, 1, 1, 0,17, 0.00,60.00,Thursday
4973,-2.022890000660098
4826,0.0
4827,0.0
2,1, 1, 1, 0,18, 0.00,60.00,Thursday
4973,-1.962944137725799
4826,0.0
4827,0.0
2,1, 1, 1, 0,19, 0.00,60.00,Thursday
4973,-1.913821433486128
4826,0.0
4827,0.0
2,1, 1, 1, 0,20, 0.00,60.00,Thursday
4973,-1.884645285813421
4826,0.0
4827,0.0
2,1, 1, 1, 0,21, 0.00,60.00,Thursday
4973,-1.92052440210803
4826,0.0
4827,0.0
2,1, 1, 1, 0,22, 0.00,60.00,Thursday
4973,-1.3578398764445523
4826,3333927.5272411957
4827,3.986997398897074e-8
2,1, 1, 1, 0,23, 0.00,60.00,Thursday
4973,-1.1596857664690717
4826,2664480.463007179
4827,1.892885848064907e-8
2,1, 1, 1, 0,24, 0.00,60.00,Thursday
4973,-1.1508297904333192
4826,2541163.6964165049
4827,5.177298589842394e-8
2,2, 1, 2, 0, 1, 0.00,60.00,Friday
4973,-1.1464517713949705
4826,2719193.6336196225
4827,7.508276667067548e-8
2,2, 1, 2, 0, 2, 0.00,60.00,Friday
4973,-1.143865149734962
4826,2708316.31180912
4827,6.471623237302993e-8
2,2, 1, 2, 0, 3, 0.00,60.00,Friday
4973,-1.1418915704114843
4826,2705386.6037358345
4827,1.1960992196691223e-7
2,2, 1, 2, 0, 4, 0.00,60.00,Friday
4973,-1.1380396912337019
4826,2696499.519464548
4827,7.888729669502936e-8
2,2, 1, 2, 0, 5, 0.00,60.00,Friday
4973,-1.1338516778797976
4826,2682879.434453187
4827,3.8266989577095958e-8
2,2, 1, 2, 0, 6, 0.00,60.00,Friday
4973,-1.1299019825421222
4826,2674532.0809061916
4827,2.660272002685815e-8
2,2, 1, 2, 0, 7, 0.00,60.00,Friday
4973,-1.1262116473764446
4826,2662912.763038142
4827,1.0190888133365661e-7
2,2, 1, 2, 0, 8, 0.00,60.00,Friday
4973,-1.7402181692596355
4826,0.0
4827,0.0
2,2, 1, 2, 0, 9, 0.00,60.00,Friday
4973,-2.1156686084635019
4826,0.0
4827,0.0
2,2, 1, 2, 0,10, 0.00,60.00,Friday
4973,-2.100787232297747
4826,0.0
4827,0.0
2,2, 1, 2, 0,11, 0.00,60.00,Friday
4973,-2.0864920105754249
4826,0.0
4827,0.0
2,2, 1, 2, 0,12, 0.00,60.00,Friday
4973,-2.076172334358146
4826,0.0
4827,0.0
2,2, 1, 2, 0,13, 0.00,60.00,Friday
4973,-2.063900142575185
4826,0.0
4827,0.0
2,2, 1, 2, 0,14, 0.00,60.00,Friday
4973,-2.0502923309784064
4826,0.0
4827,0.0
2,2, 1, 2, 0,15, 0.00,60.00,Friday
4973,-2.0235857135433408
4826,0.0
4827,0.0
2,2, 1, 2, 0,16, 0.00,60.00,Friday
4973,-1.9873292692168694
4826,0.0
4827,0.0
2,2, 1, 2, 0,17, 0.00,60.00,Friday
4973,-1.9642651205125528
4826,0.0
4827,0.0
2,2, 1, 2, 0,18, 0.00,60.00,Friday
4973,-1.9854370352416722
4826,0.0
4827,0.0
2,2, 1, 2, 0,19, 0.00,60.00,Friday
4973,-2.0270338203708206
4826,0.0
4827,0.0
2,2, 1, 2, 0,20, 0.00,60.00,Friday
4973,-2.050625935066858
4826,0.0
4827,0.0
2,2, 1, 2, 0,21, 0.00,60.00,Friday
4973,-2.0743862667661139
4826,0.0
4827,0.0
2,2, 1, 2, 0,22, 0.00,60.00,Friday
4973,-1.4022521569246163
4826,3711252.4542833997
4827,3.630930223152973e-8
2,2, 1, 2, 0,23, 0.00,60.00,Friday
4973,-1.1630233457856632
4826,2670899.650233625
4827,1.3710632629226894e-8
2,2, 1, 2, 0,24, 0.00,60.00,Friday
4973,-1.1437448309721375
4826,2542414.0854755535
4827,4.2871306504821408e-8
2,3, 1, 3, 0, 1, 0.00,60.00,Saturday
4973,-1.1356840018398682
4826,2740484.5797464807
4827,5.6914473134384028e-8
2,3, 1, 3, 0, 2, 0.00,60.00,Saturday
4973,-1.1326893315564153
4826,2769978.1424763717
4827,2.2612312022829429e-8
2,3, 1, 3, 0, 3, 0.00,60.00,Saturday
4973,-1.1345400281096512
4826,2780423.73677842
4827,1.5675141185056419e-7
2,3, 1, 3, 0, 4, 0.00,60.00,Saturday
4973,-1.1363457311198853
4826,2777309.8023223665
4827,7.458993422915228e-8
2,3, 1, 3, 0, 5, 0.00,60.00,Saturday
4973,-1.136866747266974
4826,2765526.658478547
4827,3.877858034684323e-8
2,3, 1, 3, 0, 6, 0.00,60.00,Saturday
4973,-1.1360697224885266
4826,2740317.939831361
4827,2.0975221559638159e-8
2,3, 1, 3, 0, 7, 0.00,60.00,Saturday
4973,-1.1335337946076157
4826,2697431.9268421179
4827,7.008793545537628e-8
2,3, 1, 3, 0, 8, 0.00,60.00,Saturday
4973,-1.1291762204688323
4826,2650724.676702073
4827,9.964765013137367e-8
2,3, 1, 3, 0, 9, 0.00,60.00,Saturday
4973,-1.1255876053315078
4826,2656925.4963564106
4827,3.396962711121887e-8
2,3, 1, 3, 0,10, 0.00,60.00,Saturday
4973,-1.1216825001802107
4826,2608331.222115376
4827,3.693685357575305e-8
2,3, 1, 3, 0,11, 0.00,60.00,Saturday
4973,-1.1185300882850083
4826,2619831.8850992347
4827,5.1670667744474488e-8
2,3, 1, 3, 0,12, 0.00,60.00,Saturday
4973,-1.1160914019003319
4826,2578970.4644659466
4827,9.341647455585189e-8
2,3, 1, 3, 0,13, 0.00,60.00,Saturday
4973,-1.1129501764637618
4826,2541419.8236731106
4827,3.888089850079268e-8
2,3, 1, 3, 0,14, 0.00,60.00,Saturday
4973,-1.109471873434216
4826,2506521.244044579
4827,5.1466031436575579e-8
2,3, 1, 3, 0,15, 0.00,60.00,Saturday
4973,-1.1051665566686129
4826,2439597.7565442027
4827,7.019025360932574e-8
2,3, 1, 3, 0,16, 0.00,60.00,Saturday
4973,-1.0991630292085684
4826,2421860.60478653
4827,1.2411192074068823e-7
2,3, 1, 3, 0,17, 0.00,60.00,Saturday
4973,-1.094351055124323
4826,2450266.4508484227
4827,5.43309397471603e-8
2,3, 1, 3, 0,18, 0.00,60.00,Saturday
4973,-1.0900453271228555
4826,2432226.784684363
4827,6.036771083017811e-8
2,3, 1, 3, 0,19, 0.00,60.00,Saturday
4973,-1.0836503094062736
4826,2397722.332899289
4827,2.291926648467779e-8
2,3, 1, 3, 0,20, 0.00,60.00,Saturday
4973,-1.0764649465344374
4826,2254552.4656065485
4827,3.263949110987596e-8
2,3, 1, 3, 0,21, 0.00,60.00,Saturday
4973,-1.0685950300914518
4826,2182263.883486229
4827,3.3867308957269418e-8
2,3, 1, 3, 0,22, 0.00,60.00,Saturday
4973,-1.0606225478773366
4826,2153625.2464060585
4827,3.509512680466287e-8
2,3, 1, 3, 0,23, 0.00,60.00,Saturday
4973,-1.054368862076918
4826,2140314.837509008
4827,3.5709035728359598e-8
2,3, 1, 3, 0,24, 0.00,60.00,Saturday
4973,-1.0484699449167257
4826,2073582.3482977527
4827,1.545004124636762e-8
2,4, 1, 4, 0, 1, 0.00,60.00,Sunday
4973,-1.0449722492028442
4826,2209936.6586899498
4827,7.571513898278474
2,4, 1, 4, 0, 2, 0.00,60.00,Sunday
4973,-1.0408876363687703
4826,2210759.0253102767
4827,5.0033577281283217e-8
2,4, 1, 4, 0, 3, 0.00,60.00,Sunday