Program Version,EnergyPlus, Version 8.7.0-78a111df4a, YMD=2019.05.28 05:48
1,5,Environment Title[],Latitude[deg],Longitude[deg],Time Zone[],Elevation[m]
2,6,Day of Simulation[],Month[],Day of Month[],DST Indicator[1=yes 0=no],Hour[],StartMinute[],EndMinute[],DayType
3,3,Cumulative Day of Simulation[],Month[],Day of Month[],DST Indicator[1=yes 0=no],DayType  ! When Daily Report Variables Requested
4,2,Cumulative Days of Simulation[],Month[]  ! When Monthly Report Variables Requested
5,1,Cumulative Days of Simulation[] ! When Run Period Report Variables Requested
4826,1,BEDROOM2.2,Zone Ideal Loads Zone Total Heating Energy [J] !Hourly
4827,1,BEDROOM2.2,Zone Ideal Loads Zone Total Cooling Energy [J] !Hourly
4973,1,BEDROOM2.2,Zone Thermal Comfort Fanger Model PMV [] !Hourly
End of Data Dictionary
1,RUNPERIOD,  29.58, 106.47,   8.00, 259.10
2,1, 1, 1, 0, 1, 0.00,60.00,Thursday
4973,-1.07356943850337
4826,2342335.3333642359
4827,9.957695758864496e-8
2,1, 1, 1, 0, 2, 0.00,60.00,Thursday
4973,-1.0661420007105745
4826,2352937.5407342028
4827,9.157474778476171e-8
2,1, 1, 1, 0, 3, 0.00,60.00,Thursday
4973,-1.0583734104777694
4826,2290055.188003512
4827,1.0180656317970716e-7
2,1, 1, 1, 0, 4, 0.00,60.00,Thursday
4973,-1.0517117139583805
4826,2257913.0371081458
4827,1.3475300875143149e-7
2,1, 1, 1, 0, 5, 0.00,60.00,Thursday
4973,-1.04834963118956
4826,2275453.903285128
4827,7.336211638175883e-8
2,1, 1, 1, 0, 6, 0.00,60.00,Thursday
4973,-1.0480624023081129
4826,2298353.250422241
4827,7.458993422915228e-8
2,1, 1, 1, 0, 7, 0.00,60.00,Thursday
4973,-1.0499183703830207
4826,2316480.7777745875
4827,5.944684744463302e-8
2,1, 1, 1, 0, 8, 0.00,60.00,Thursday
4973,-1.6710018741998317
4826,0.0
4827,0.0
2,1, 1, 1, 0, 9, 0.00,60.00,Thursday
4973,-2.0615025987334247
4826,0.0
4827,0.0
2,1, 1, 1, 0,10, 0.00,60.00,Thursday
4973,-2.0988126806929445
4826,0.0
4827,0.0
2,1, 1, 1, 0,11, 0.00,60.00,Thursday
4973,-2.1049200765490236
4826,0.0
4827,0.0
2,1, 1, 1, 0,12, 0.00,60.00,Thursday
4973,-2.099854833152613
4826,0.0
4827,0.0
2,1, 1, 1, 0,13, 0.00,60.00,Thursday
4973,-2.081865151638261
4826,0.0
4827,0.0
2,1, 1, 1, 0,14, 0.00,60.00,Thursday
4973,-2.046184697010091
4826,0.0
4827,0.0
2,1, 1, 1, 0,15, 0.00,60.00,Thursday
4973,-2.000870527708273
4826,0.0
4827,0.0
2,1, 1, 1, 0,16, 0.00,60.00,Thursday
4973,-1.94216910880374
4826,0.0
4827,0.0
2,1, 1, 1, 0,17, 0.00,60.00,Thursday
4973,-1.8744460711403828
4826,0.0
4827,0.0
2,1, 1, 1, 0,18, 0.00,60.00,Thursday
4973,-1.8148568873429483
4826,0.0
4827,0.0
2,1, 1, 1, 0,19, 0.00,60.00,Thursday
4973,-1.7673200355614996
4826,0.0
4827,0.0
2,1, 1, 1, 0,20, 0.00,60.00,Thursday
4973,-1.7394709041632238
4826,0.0
4827,0.0
2,1, 1, 1, 0,21, 0.00,60.00,Thursday
4973,-1.7798224773120524
4826,0.0
4827,0.0
2,1, 1, 1, 0,22, 0.00,60.00,Thursday
4973,-1.2645649421913885
4826,2956083.497474356
4827,5.168772077013273e-8
2,1, 1, 1, 0,23, 0.00,60.00,Thursday
4973,-1.0832708216563812
4826,2225472.8278457855
4827,1.0334133548894897e-8
2,1, 1, 1, 0,24, 0.00,60.00,Thursday
4973,-1.0789769627987263
4826,2124616.341599418
4827,5.65819391340483e-8
2,2, 1, 2, 0, 1, 0.00,60.00,Friday
4973,-1.0765532744397879
4826,2317694.645869225
4827,7.654359085956292e-8
2,2, 1, 2, 0, 2, 0.00,60.00,Friday
4973,-1.0747537901424998
4826,2317090.82689521
4827,5.4637894209008667e-8
2,2, 1, 2, 0, 3, 0.00,60.00,Friday
4973,-1.0735593575793825
4826,2320254.3316805448
4827,8.072902346611954e-8
2,2, 1, 2, 0, 4, 0.00,60.00,Friday
4973,-1.070208749565834
4826,2314715.8223604999
4827,1.1940528565901332e-7
2,2, 1, 2, 0, 5, 0.00,60.00,Friday
4973,-1.0660011605988767
4826,2302012.1094096519
4827,4.092726157978177e-8
2,2, 1, 2, 0, 6, 0.00,60.00,Friday
4973,-1.0617676647836408
4826,2293119.823587716
4827,5.566107574850321e-8
2,2, 1, 2, 0, 7, 0.00,60.00,Friday
4973,-1.05760390631121
4826,2279903.691779916
4827,6.456275514210574e-8
2,2, 1, 2, 0, 8, 0.00,60.00,Friday
4973,-1.6393738291917573
4826,0.0
4827,0.0
2,2, 1, 2, 0, 9, 0.00,60.00,Friday
4973,-1.9829710753251169
4826,0.0
4827,0.0
2,2, 1, 2, 0,10, 0.00,60.00,Friday
4973,-1.9630569741297042
4826,0.0
4827,0.0
2,2, 1, 2, 0,11, 0.00,60.00,Friday
4973,-1.9450688407648376
4826,0.0
4827,0.0
2,2, 1, 2, 0,12, 0.00,60.00,Friday
4973,-1.9315934492822065
4826,0.0
4827,0.0
2,2, 1, 2, 0,13, 0.00,60.00,Friday
4973,-1.9170917083916346
4826,0.0
4827,0.0
2,2, 1, 2, 0,14, 0.00,60.00,Friday
4973,-1.9022792464553027
4826,0.0
4827,0.0
2,2, 1, 2, 0,15, 0.00,60.00,Friday
4973,-1.8757265340711012
4826,0.0
4827,0.0
2,2, 1, 2, 0,16, 0.00,60.00,Friday
4973,-1.8415349595665798
4826,0.0
4827,0.0
2,2, 1, 2, 0,17, 0.00,60.00,Friday
4973,-1.8207946810194305
4826,0.0
4827,0.0
2,2, 1, 2, 0,18, 0.00,60.00,Friday
4973,-1.8430510501309532
4826,0.0
4827,0.0
2,2, 1, 2, 0,19, 0.00,60.00,Friday
4973,-1.8853733380123719
4826,0.0
4827,0.0
2,2, 1, 2, 0,20, 0.00,60.00,Friday
4973,-1.9113066629294362
4826,0.0
4827,0.0
2,2, 1, 2, 0,21, 0.00,60.00,Friday
4973,-1.9384046175402988
4826,0.0
4827,0.0
2,2, 1, 2, 0,22, 0.00,60.00,Friday
4973,-1.3138248432793336
4826,3245746.8403411169
4827,3.8382950151572007e-8
2,2, 1, 2, 0,23, 0.00,60.00,Friday
4973,-1.091928927457563
4826,2261914.435931412
4827,5.4433257901109758e-8
2,2, 1, 2, 0,24, 0.00,60.00,Friday
4973,-1.074579553973495
4826,2146758.7972530417
4827,7.878497854107991e-8
2,3, 1, 3, 0, 1, 0.00,60.00,Saturday
4973,-1.0674264551838624
4826,2352554.769474527
4827,5.598632345605768e-8
2,3, 1, 3, 0, 2, 0.00,60.00,Saturday
4973,-1.0648695916348768
4826,2385806.276350046
4827,7.8580342233181e-8
2,3, 1, 3, 0, 3, 0.00,60.00,Saturday
4973,-1.0670256237302665
4826,2398544.5776439437
4827,8.799361239653081e-8
2,3, 1, 3, 0, 4, 0.00,60.00,Saturday
4973,-1.0687011125125663
4826,2395849.6297905265
4827,9.11654751689639e-8
2,3, 1, 3, 0, 5, 0.00,60.00,Saturday
4973,-1.0685611468221648
4826,2381434.3207589287
4827,9.464429240324535e-8
2,3, 1, 3, 0, 6, 0.00,60.00,Saturday
4973,-1.0669431614611338
4826,2352911.2069459415
4827,6.272102837101557e-8
2,3, 1, 3, 0, 7, 0.00,60.00,Saturday
4973,-1.0633210020105384
4826,2305235.5726751347
4827,6.006075636832975e-8
2,3, 1, 3, 0, 8, 0.00,60.00,Saturday
4973,-1.057813947348027
4826,2253258.34642155
4827,6.527216100948863e-8
2,3, 1, 3, 0, 9, 0.00,60.00,Saturday
4973,-1.0531067336237235
4826,2254364.2146304214
4827,3.6629899113904688e-8
2,3, 1, 3, 0,10, 0.00,60.00,Saturday
4973,-1.047978624508957
4826,2199959.762726937
4827,1.432454155292362e-8
2,3, 1, 3, 0,11, 0.00,60.00,Saturday
4973,-1.0437396428233903
4826,2206207.760160026
4827,9.280256563215517e-8
2,3, 1, 3, 0,12, 0.00,60.00,Saturday
4973,-1.040421357005968
4826,2161320.98836857
4827,9.239329301635735e-8
2,3, 1, 3, 0,13, 0.00,60.00,Saturday
4973,-1.0364271443727565
4826,2120076.244995971
4827,5.7400484365643936e-8
2,3, 1, 3, 0,14, 0.00,60.00,Saturday
4973,-1.0322606211105344
4826,2082444.2316577046
4827,6.855316314613447e-8
2,3, 1, 3, 0,15, 0.00,60.00,Saturday
4973,-1.0274532008067908
4826,2014110.3041048588
4827,1.780335878720507e-8
2,3, 1, 3, 0,16, 0.00,60.00,Saturday
4973,-1.0209194496118997
4826,1994913.7870712158
4827,6.415348252630793e-8
2,3, 1, 3, 0,17, 0.00,60.00,Saturday
4973,-1.0158812092805612
4826,2023321.2497001396
4827,7.653397915419191e-8
2,3, 1, 3, 0,18, 0.00,60.00,Saturday
4973,-1.0114858623813814
4826,2005995.3503459495
4827,1.0129497240995989e-8
2,3, 1, 3, 0,19, 0.00,60.00,Saturday
4973,-1.0049812413256303
4826,1972710.186219374
4827,2.6193447411060334e-8
2,3, 1, 3, 0,20, 0.00,60.00,Saturday
4973,-0.9977870254549277
4826,1831338.133379833
4827,4.901039574178867e-8
2,3, 1, 3, 0,21, 0.00,60.00,Saturday
4973,-0.9898564299258961
4826,1760680.3699748885
4827,1.3096723705530167e-8
2,3, 1, 3, 0,22, 0.00,60.00,Saturday
4973,-0.9818255414156976
4826,1733777.5032379339
4827,7.878497854107991e-8
2,3, 1, 3, 0,23, 0.00,60.00,Saturday
4973,-0.9755377391029357
4826,1721946.052824831
4827,9.771383702172898e-9
2,3, 1, 3, 0,24, 0.00,60.00,Saturday
4973,-0.9694933257701724
4826,1655934.5879915057
4827,8.282654562208336e-8
2,4, 1, 4, 0, 1, 0.00,60.00,Sunday
4973,-0.9659209888315186
4826,1792626.6119675604
4827,6.141367724871429
2,4, 1, 4, 0, 2, 0.00,60.00,Sunday
4973,-0.9616770753523494
4826,1793338.9692905574
4827,8.420784070040099e-8
2,4, 1, 4, 0, 3, 0.00,60.00,Sunday
4973,-0.9585612422048603
4826,1774985.6678278032
4827,4.04156708100345e-8
2,4, 1, 4, 0, 4, 0.00,60.00,Sunday
4973,-0.9554175597668094
4826,1761853.9530690159
4827,3.913669388566632e-8
2,4, 1, 4, 0, 5, 0.00,60.00,Sunday
4973,-0.9518795796904512
4826,1752513.8860175904
4827,4.768025974044576e-8
2,4, 1, 4, 0, 6, 0.00,60.00,Sunday
4973,-0.9482289568012053
4826,1748410.1022616374
4827,5.468905328598339e-8
2,4, 1, 4, 0, 7, 0.00,60.00,Sunday
4973,-0.9450255698204479
4826,1743216.0861921514
4827,2.916067387559451e-8
2,4, 1, 4, 0, 8, 0.00,60.00,Sunday
4973,-0.9423055186995297
4826,1731696.5767739753
4827,2.955800937343156e-8
2,4, 1, 4, 0, 9, 0.00,60.00,Sunday
4973,-0.9416632006632875
4826,1770243.6049278833
4827,5.975380190648139e-8
2,4, 1, 4, 0,10, 0.00,60.00,Sunday
4973,-0.9416207016780374
4826,1742738.4549968446
4827,2.4505197870894336e-8
2,4, 1, 4, 0,11, 0.00,60.00,Sunday
4973,-0.942084823445706
4826,1772980.3843021058
4827,8.016627361939754e-8
2,4, 1, 4, 0,12, 0.00,60.00,Sunday
4973,-0.9447153327826859
4826,1740995.312632411
4827,7.7454842539737e-8
2,4, 1, 4, 0,13, 0.00,60.00,Sunday
4973,-0.9456852140874403
4826,1699068.0390258986
4827,1.7547563402331435e-8
2,4, 1, 4, 0,14, 0.00,60.00,Sunday
4973,-0.9459891343127901
4826,1644559.2736745536
4827,4.814069143321831e-8
2,4, 1, 4, 0,15, 0.00,60.00,Sunday
4973,-0.9431006679485052
4826,1537884.062208698
4827,2.6500401872908698e-8
2,4, 1, 4, 0,16, 0.00,60.00,Sunday
4973,-0.9352941507021859
4826,1485114.5029209378
4827,4.4713033275911587e-8
2,4, 1, 4, 0,17, 0.00,60.00,Sunday
4973,-0.9271388355870435
4826,1518830.2915728386
4827,3.090008249273524e-8
2,4, 1, 4, 0,18, 0.00,60.00,Sunday
4973,-0.9228125779200544
4826,1530085.1094052047
4827,7.699441084696446e-8
2,4, 1, 4, 0,19, 0.00,60.00,Sunday
4973,-0.9190862470481576
4826,1543523.2853053583
4827,4.0313352656085047e-8
2,4, 1, 4, 0,20, 0.00,60.00,Sunday
4973,-0.9153168238792353
4826,1447622.756179071
4827,3.552997895894805e-8
2,4, 1, 4, 0,21, 0.00,60.00,Sunday
4973,-0.9132935495025929
4826,1415514.0954650166
4827,4.246203388902359e-8
2,4, 1, 4, 0,22, 0.00,60.00,Sunday
4973,-0.9113675684298802
4826,1412719.3897343539
4827,4.292246558179613e-8
2,4, 1, 4, 0,23, 0.00,60.00,Sunday
4973,-0.9092337747501262
4826,1408216.5369244829
4827,4.7270987124647948e-8
2,4, 1, 4, 0,24, 0.00,60.00,Sunday
4973,-0.907010791470479
4826,1342817.322040039
4827,2.056594894384034e-8
2,5, 1, 5, 0, 1, 0.00,60.00,Monday
4973,-0.9071757952586166
4826,1477190.6669366868
4827,0.5550373508526718
2,5, 1, 5, 0, 2, 0.00,60.00,Monday
4973,-0.906234567134524
4826,1472075.2578745159
4827,4.271782927389722e-8
2,5, 1, 5, 0, 3, 0.00,60.00,Monday
4973,-0.9063973386092277
4826,1487179.9847069369
4827,8.395204531552736e-8
2,5, 1, 5, 0, 4, 0.00,60.00,Monday
4973,-0.9083768508475377
4826,1505491.7337680008
4827,2.936531018349342e-8
2,5, 1, 5, 0, 5, 0.00,60.00,Monday
4973,-0.9115061907826552
4826,1517700.3506312129
4827,2.496562956366688e-8
2,5, 1, 5, 0, 6, 0.00,60.00,Monday
4973,-0.914349205839734
4826,1531503.1802822466
4827,1.0692247087717988e-8
2,5, 1, 5, 0, 7, 0.00,60.00,Monday
4973,-0.9169884526607735
4826,1545948.4550748273
4827,9.976020010071807e-9
2,5, 1, 5, 0, 8, 0.00,60.00,Monday
4973,-1.423521451715755
4826,0.0
4827,0.0
2,5, 1, 5, 0, 9, 0.00,60.00,Monday
4973,-1.70232993534914
4826,0.0
4827,0.0
2,5, 1, 5, 0,10, 0.00,60.00,Monday
4973,-1.723196307362508
4826,0.0
4827,0.0
2,5, 1, 5, 0,11, 0.00,60.00,Monday
4973,-1.7345811447573634
4826,0.0
4827,0.0
2,5, 1, 5, 0,12, 0.00,60.00,Monday
4973,-1.7435054398631805
4826,0.0
4827,0.0
2,5, 1, 5, 0,13, 0.00,60.00,Monday
4973,-1.7477671715578143
4826,0.0
4827,0.0
2,5, 1, 5, 0,14, 0.00,60.00,Monday
4973,-1.7446701521641464
4826,0.0
4827,0.0
2,5, 1, 5, 0,15, 0.00,60.00,Monday
4973,-1.7393881811052868
4826,0.0
4827,0.0
2,5, 1, 5, 0,16, 0.00,60.00,Monday
4973,-1.7324255219357694
4826,0.0
4827,0.0
2,5, 1, 5, 0,17, 0.00,60.00,Monday
4973,-1.7294523990066094
4826,0.0
4827,0.0
2,5, 1, 5, 0,18, 0.00,60.00,Monday
4973,-1.7280355922077786
4826,0.0
4827,0.0
2,5, 1, 5, 0,19, 0.00,60.00,Monday
4973,-1.7294569003740175
4826,0.0
4827,0.0
2,5, 1, 5, 0,20, 0.00,60.00,Monday
4973,-1.7217611706941163
4826,0.0
4827,0.0
2,5, 1, 5, 0,21, 0.00,60.00,Monday
4973,-1.7358498530562606
4826,0.0
4827,0.0
2,5, 1, 5, 0,22, 0.00,60.00,Monday
4973,-1.203520296855141
4826,2620411.3007552109
4827,5.5957798394956629e-8
2,5, 1, 5, 0,23, 0.00,60.00,Monday
4973,-1.0177785111723024
4826,1795676.9068150568
4827,7.10599579178961e-8
2,5, 1, 5, 0,24, 0.00,60.00,Monday
4973,-1.006079993281175
4826,1687904.9838624115
4827,5.305196282279212e-8
2,6, 1, 6, 0, 1, 0.00,60.00,Tuesday
4973,-0.9972859645220515
4826,1876492.5954728747
4827,5.492573798384228
2,6, 1, 6, 0, 2, 0.00,60.00,Tuesday
4973,-0.9899589643797092
4826,1875962.805076495
4827,1.2278178473934532e-9
2,6, 1, 6, 0, 3, 0.00,60.00,Tuesday
4973,-0.9821496156637399
4826,1833295.6814407104
4827,4.2308556658099408e-8
2,6, 1, 6, 0, 4, 0.00,60.00,Tuesday
4973,-0.9748831131575165
4826,1804836.2721221327
4827,1.2278178473934532e-8
2,6, 1, 6, 0, 5, 0.00,60.00,Tuesday
4973,-0.9681482572707931
4826,1792779.769128728
4827,7.494804776797537e-8
2,6, 1, 6, 0, 6, 0.00,60.00,Tuesday
4973,-0.9618206366853096
4826,1776629.9939847207
4827,2.8597924028872513e-8
2,6, 1, 6, 0, 7, 0.00,60.00,Tuesday
4973,-0.9565757830940126
4826,1762596.2681862945
4827,7.438529792125337e-8
2,6, 1, 6, 0, 8, 0.00,60.00,Tuesday
4973,-1.463470664104048
4826,0.0
4827,0.0
2,6, 1, 6, 0, 9, 0.00,60.00,Tuesday
4973,-1.7509247688936847
4826,0.0
4827,0.0
2,6, 1, 6, 0,10, 0.00,60.00,Tuesday
4973,-1.7349958095892189
4826,0.0
4827,0.0
2,6, 1, 6, 0,11, 0.00,60.00,Tuesday
4973,-1.7261816101778458
4826,0.0
4827,0.0
2,6, 1, 6, 0,12, 0.00,60.00,Tuesday
4973,-1.7124188540448114
4826,0.0
4827,0.0
2,6, 1, 6, 0,13, 0.00,60.00,Tuesday
4973,-1.6782743961245466
4826,0.0
4827,0.0
2,6, 1, 6, 0,14, 0.00,60.00,Tuesday
4973,-1.586603678132177
4826,0.0
4827,0.0
2,6, 1, 6, 0,15, 0.00,60.00,Tuesday
4973,-1.5664453141594304
4826,0.0
4827,0.0
2,6, 1, 6, 0,16, 0.00,60.00,Tuesday
4973,-1.5276304560213339
4826,0.0
4827,0.0
2,6, 1, 6, 0,17, 0.00,60.00,Tuesday
4973,-1.4944648404786874
4826,0.0
4827,0.0
2,6, 1, 6, 0,18, 0.00,60.00,Tuesday
4973,-1.5048604829757247
4826,0.0
4827,0.0
2,6, 1, 6, 0,19, 0.00,60.00,Tuesday
4973,-1.5399429756176984
4826,0.0
4827,0.0
2,6, 1, 6, 0,20, 0.00,60.00,Tuesday
4973,-1.5616645160130052
4826,0.0
4827,0.0
2,6, 1, 6, 0,21, 0.00,60.00,Tuesday
4973,-1.5932280710411305
4826,0.0
4827,0.0
2,6, 1, 6, 0,22, 0.00,60.00,Tuesday
4973,-1.1295786696565882
4826,2307751.951001058
4827,7.225025910884142e-8
2,6, 1, 6, 0,23, 0.00,60.00,Tuesday
4973,-0.9681514797509689
4826,1624441.977143894
4827,1.176658770418726e-9
2,6, 1, 6, 0,24, 0.00,60.00,Tuesday
4973,-0.9585391684256357
4826,1532814.2042010497
4827,3.8983216654742139e-8
2,7, 1, 7, 0, 1, 0.00,60.00,Wednesday
4973,-0.9545531153880658
4826,1734554.5842908524
4827,4.031042928025791e-8
2,7, 1, 7, 0, 2, 0.00,60.00,Wednesday
4973,-0.9526917207749921
4826,1754499.5120415453
4827,4.368985173641704e-8
2,7, 1, 7, 0, 3, 0.00,60.00,Wednesday
4973,-0.9530066987949907
4826,1788899.3601478164
4827,7.192966222646646e-8
2,7, 1, 7, 0, 4, 0.00,60.00,Wednesday
4973,-0.9551161295796421
4826,1839477.1866504634
4827,2.1589130483334885e-8
2,7, 1, 7, 0, 5, 0.00,60.00,Wednesday
4973,-0.9594342780269208
4826,1906280.805124944
4827,3.509512680466287e-8
2,7, 1, 7, 0, 6, 0.00,60.00,Wednesday
4973,-0.9654331796300918
4826,1970366.7844919549
4827,8.963070285972208e-8
2,7, 1, 7, 0, 7, 0.00,60.00,Wednesday
4973,-0.971392993296247
4826,2022151.8895442663
4827,5.7912075135391208e-8
2,7, 1, 7, 0, 8, 0.00,60.00,Wednesday
4973,-1.6048108941689299
4826,0.0
4827,0.0
2,7, 1, 7, 0, 9, 0.00,60.00,Wednesday
4973,-1.9429904506378613
4826,0.0
4827,0.0
2,7, 1, 7, 0,10, 0.00,60.00,Wednesday
4973,-1.9539473292500538
4826,0.0
4827,0.0
2,7, 1, 7, 0,11, 0.00,60.00,Wednesday
4973,-1.9395515103590698
4826,0.0
4827,0.0
2,7, 1, 7, 0,12, 0.00,60.00,Wednesday
4973,-1.9258291369181456
4826,0.0
4827,0.0
2,7, 1, 7, 0,13, 0.00,60.00,Wednesday
4973,-1.8467015329166293
4826,0.0
4827,0.0
2,7, 1, 7, 0,14, 0.00,60.00,Wednesday
4973,-1.7513986715362427
4826,0.0
4827,0.0
2,7, 1, 7, 0,15, 0.00,60.00,Wednesday
4973,-1.670675699292072
4826,0.0
4827,0.0
2,7, 1, 7, 0,16, 0.00,60.00,Wednesday
4973,-1.5348104226632116
4826,0.0
4827,0.0
2,7, 1, 7, 0,17, 0.00,60.00,Wednesday
4973,-1.468306346639063
4826,0.0
4827,0.0
2,7, 1, 7, 0,18, 0.00,60.00,Wednesday
4973,-1.4911462292406484
4826,0.0
4827,0.0
2,7, 1, 7, 0,19, 0.00,60.00,Wednesday
4973,-1.5234362066041607
4826,0.0
4827,0.0
2,7, 1, 7, 0,20, 0.00,60.00,Wednesday
4973,-1.5443354647750456
4826,0.0
4827,0.0
2,7, 1, 7, 0,21, 0.00,60.00,Wednesday
4973,-1.5685544633066222
4826,0.0
4827,0.0
2,7, 1, 7, 0,22, 0.00,60.00,Wednesday
4973,-1.134420616930564
4826,2157974.8764767635
4827,6.1077116697561e-8
2,7, 1, 7, 0,23, 0.00,60.00,Wednesday
4973,-0.9852016617996386
4826,1544455.3148719785
4827,2.7984015105175787e-8
2,7, 1, 7, 0,24, 0.00,60.00,Wednesday
4973,-0.9754774494006222
4826,1460915.9665946486
4827,4.2103920350200499e-8
2,8, 1, 8, 0, 1, 0.00,60.00,Thursday
4973,-0.9707091493979115
4826,1667073.0662431755
4827,7.431058942789345e-8
2,8, 1, 8, 0, 2, 0.00,60.00,Thursday
4973,-0.9663720927488307
4826,1678708.8231943339
4827,3.7550762499449777e-8
2,8, 1, 8, 0, 3, 0.00,60.00,Thursday
4973,-0.9626135247191551
4826,1703811.2436590619
4827,0.0
2,8, 1, 8, 0, 4, 0.00,60.00,Thursday
4973,-0.9595297203405273
4826,1726124.2656357242
4827,0.0
2,8, 1, 8, 0, 5, 0.00,60.00,Thursday
4973,-0.9569539294156693
4826,1737858.2893361827
4827,5.156834959052503e-8
2,8, 1, 8, 0, 6, 0.00,60.00,Thursday
4973,-0.9542495923856572
4826,1748346.6977734152
4827,5.525180313270539e-8
2,8, 1, 8, 0, 7, 0.00,60.00,Thursday
4973,-0.9524375970470023
4826,1749152.1488887408
4827,2.1026380636612886e-8
2,8, 1, 8, 0, 8, 0.00,60.00,Thursday
4973,-1.4595404795090186
4826,0.0
4827,0.0
2,8, 1, 8, 0, 9, 0.00,60.00,Thursday
4973,-1.7511369055249496
4826,0.0
4827,0.0
2,8, 1, 8, 0,10, 0.00,60.00,Thursday
4973,-1.7573054980063554
4826,0.0
4827,0.0
2,8, 1, 8, 0,11, 0.00,60.00,Thursday
4973,-1.7406327220560237
4826,0.0
4827,0.0
2,8, 1, 8, 0,12, 0.00,60.00,Thursday
4973,-1.7215707803805867
4826,0.0
4827,0.0
2,8, 1, 8, 0,13, 0.00,60.00,Thursday
4973,-1.6854404575206728
4826,0.0
4827,0.0
2,8, 1, 8, 0,14, 0.00,60.00,Thursday
4973,-1.652146057239187
4826,0.0
4827,0.0
2,8, 1, 8, 0,15, 0.00,60.00,Thursday
4973,-1.626288543028714
4826,0.0
4827,0.0
2,8, 1, 8, 0,16, 0.00,60.00,Thursday
4973,-1.6074056135972339
4826,0.0
4827,0.0
2,8, 1, 8, 0,17, 0.00,60.00,Thursday
4973,-1.594012309422737
4826,0.0
4827,0.0
2,8, 1, 8, 0,18, 0.00,60.00,Thursday
4973,-1.5993504664224499
4826,0.0
4827,0.0
2,8, 1, 8, 0,19, 0.00,60.00,Thursday
4973,-1.6181410585540544
4826,0.0
4827,0.0
2,8, 1, 8, 0,20, 0.00,60.00,Thursday
4973,-1.6328238517450138
4826,0.0
4827,0.0
2,8, 1, 8, 0,21, 0.00,60.00,Thursday
4973,-1.6463686141747805
4826,0.0
4827,0.0
2,8, 1, 8, 0,22, 0.00,60.00,Thursday
4973,-1.1562838774996494
4826,2330019.0368650995
4827,3.1647005016566257e-8
2,8, 1, 8, 0,23, 0.00,60.00,Thursday
4973,-0.9858320900831316
4826,1596193.433360228
4827,4.445723789103795e-8
2,8, 1, 8, 0,24, 0.00,60.00,Thursday
4973,-0.9711955147266536
4826,1509582.12047497
4827,5.709352990379557e-8
2,9, 1, 9, 0, 1, 0.00,60.00,Friday
4973,-0.9649833893816584
4826,1728585.340901471
4827,8.566246378904907e-8
2,9, 1, 9, 0, 2, 0.00,60.00,Friday
4973,-0.9622468509780282
4826,1757517.5006889397
4827,1.3710632629226894e-8
2,9, 1, 9, 0, 3, 0.00,60.00,Friday
4973,-0.9604072060892821
4826,1766177.4838992963
4827,2.077058525173925e-8
2,9, 1, 9, 0, 4, 0.00,60.00,Friday
4973,-0.957605863316344
4826,1757009.3281418677
4827,1.6933654478634709e-8
2,9, 1, 9, 0, 5, 0.00,60.00,Friday
4973,-0.953956402543687
4826,1746195.0499355016
4827,8.850520316627808e-9
2,9, 1, 9, 0, 6, 0.00,60.00,Friday
4973,-0.9503145133808139
4826,1738443.0572702203
4827,2.972342372231651e-8
2,9, 1, 9, 0, 7, 0.00,60.00,Friday
4973,-0.9475634193464784
4826,1730837.260401059
4827,6.696723175991792e-8
2,9, 1, 9, 0, 8, 0.00,60.00,Friday
4973,-1.4460834693311416
4826,0.0
4827,0.0
2,9, 1, 9, 0, 9, 0.00,60.00,Friday
4973,-1.742195309813479
4826,0.0
4827,0.0
2,9, 1, 9, 0,10, 0.00,60.00,Friday
4973,-1.7662624300948518
4826,0.0
4827,0.0
2,9, 1, 9, 0,11, 0.00,60.00,Friday
4973,-1.7698617744262613
4826,0.0
4827,0.0
2,9, 1, 9, 0,12, 0.00,60.00,Friday
4973,-1.7684558636776889
4826,0.0
4827,0.0
2,9, 1, 9, 0,13, 0.00,60.00,Friday
4973,-1.766533083893213
4826,0.0
4827,0.0
2,9, 1, 9, 0,14, 0.00,60.00,Friday
4973,-1.7594733827359555
4826,0.0
4827,0.0
2,9, 1, 9, 0,15, 0.00,60.00,Friday
4973,-1.7563291062556062
4826,0.0
4827,0.0
2,9, 1, 9, 0,16, 0.00,60.00,Friday
4973,-1.7529372677695386
4826,0.0
4827,0.0
2,9, 1, 9, 0,17, 0.00,60.00,Friday
4973,-1.7561898266087306
4826,0.0
4827,0.0
2,9, 1, 9, 0,18, 0.00,60.00,Friday
4973,-1.7654908916744546
4826,0.0
4827,0.0
2,9, 1, 9, 0,19, 0.00,60.00,Friday
4973,-1.7721253929784525
4826,0.0
4827,0.0
2,9, 1, 9, 0,20, 0.00,60.00,Friday
4973,-1.7631946275219277
4826,0.0
4827,0.0
2,9, 1, 9, 0,21, 0.00,60.00,Friday
4973,-1.762166885475657
4826,0.0
4827,0.0
2,9, 1, 9, 0,22, 0.00,60.00,Friday
4973,-1.2109209841408997
4826,2667184.7216248156
4827,8.146400887198979e-8
2,9, 1, 9, 0,23, 0.00,60.00,Friday
4973,-1.023891260576279
4826,1818248.6855398252
4827,3.309992280264851e-8
2,9, 1, 9, 0,24, 0.00,60.00,Friday
4973,-1.0103990150595664
4826,1681974.8794067545
4827,6.967866283957847e-8
2,10, 1,10, 0, 1, 0.00,60.00,Saturday
4973,-1.002681035035391
4826,1841174.1259995746
4827,1.9857802496207049
2,10, 1,10, 0, 2, 0.00,60.00,Saturday
4973,-0.9966847789972765
4826,1818549.7936359193
4827,7.059952622512356e-8
2,10, 1,10, 0, 3, 0.00,60.00,Saturday
4973,-0.9912322508718984
4826,1784143.0245726198
4827,5.765627975051757e-8
2,10, 1,10, 0, 4, 0.00,60.00,Saturday
4973,-0.9860321519889572
4826,1759584.692448571
4827,6.681375452899374e-8
2,10, 1,10, 0, 5, 0.00,60.00,Saturday
4973,-0.9806627033321713
4826,1745285.9236725565
4827,6.440927791118156e-8
2,10, 1,10, 0, 6, 0.00,60.00,Saturday
4973,-0.9757809059577618
4826,1738329.6876122843
4827,2.0872903405688704e-8
2,10, 1,10, 0, 7, 0.00,60.00,Saturday
4973,-0.971773293017294
4826,1730724.2253920106
4827,3.0593128030886876e-8
2,10, 1,10, 0, 8, 0.00,60.00,Saturday
4973,-0.9687052655753939
4826,1716786.1746493467
4827,6.629875315411482e-8
2,10, 1,10, 0, 9, 0.00,60.00,Saturday
4973,-0.9657206993592726
4826,1764537.7517636144
4827,5.9191052059759389e-8
2,10, 1,10, 0,10, 0.00,60.00,Saturday
4973,-0.9593498558644449
4826,1714071.2919947687
4827,3.5862512959283779e-8
2,10, 1,10, 0,11, 0.00,60.00,Saturday
4973,-0.953010500392086
4826,1699977.434662973
4827,3.0951241569709967e-8
2,10, 1,10, 0,12, 0.00,60.00,Saturday
4973,-0.9474854998880982
4826,1619244.5386998128
4827,6.46650732960552e-8
2,10, 1,10, 0,13, 0.00,60.00,Saturday
4973,-0.9437847345009487
4826,1539185.3663012176
4827,4.1796965888352136e-8
2,10, 1,10, 0,14, 0.00,60.00,Saturday
4973,-0.9488271085847757
4826,1503360.1922326668
4827,1.212470124301035e-8
2,10, 1,10, 0,15, 0.00,60.00,Saturday
4973,-0.9420291961134852
4826,1358165.295499789
4827,2.389128894719761e-8
2,10, 1,10, 0,16, 0.00,60.00,Saturday
4973,-0.9262832409904678
4826,1265178.9972397413
4827,5.1670667744474488e-8
2,10, 1,10, 0,17, 0.00,60.00,Saturday
4973,-0.9103200030383749
4826,1293859.2409629834
4827,2.036131263594143e-8
2,10, 1,10, 0,18, 0.00,60.00,Saturday
4973,-0.9010576855217001
4826,1312801.5352898916
4827,4.3945647121290679e-8
2,10, 1,10, 0,19, 0.00,60.00,Saturday
4973,-0.8989124193816074
4826,1350055.1903853554
4827,4.773141881742049e-8
2,10, 1,10, 0,20, 0.00,60.00,Saturday
4973,-0.8982244472465523
4826,1267208.9696355668
4827,1.5194245861493984e-8
2,10, 1,10, 0,21, 0.00,60.00,Saturday
4973,-0.8974428737176811
4826,1246657.566358818
4827,3.432774065004196e-8
2,10, 1,10, 0,22, 0.00,60.00,Saturday
4973,-0.8927345327077233
4826,1234270.211293414
4827,2.0463630789890887e-8
2,10, 1,10, 0,23, 0.00,60.00,Saturday
4973,-0.88617765189394
4826,1235463.6463443824
4827,3.836930773104541e-8
2,10, 1,10, 0,24, 0.00,60.00,Saturday
4973,-0.8801984085773016
4826,1215763.6021044015
4827,3.519744495861232e-8
2,11, 1,11, 0, 1, 0.00,60.00,Sunday
4973,-0.8814153889158453
4826,1419097.5809164418
4827,5.68539754957393e-8
2,11, 1,11, 0, 2, 0.00,60.00,Sunday
4973,-0.8867843583740005
4826,1486198.9014444203
4827,1.5194245861493984e-8
2,11, 1,11, 0, 3, 0.00,60.00,Sunday
4973,-0.8935367956635216
4826,1521910.629132874
4827,5.412630343926139e-8
2,11, 1,11, 0, 4, 0.00,60.00,Sunday
4973,-0.8973808527753366
4826,1535938.6703058764
4827,3.8983216654742139e-8
2,11, 1,11, 0, 5, 0.00,60.00,Sunday
4973,-0.898812551107928
4826,1551440.3218235346
4827,1.9184653865522706e-8
2,11, 1,11, 0, 6, 0.00,60.00,Sunday
4973,-0.9010615060338246
4826,1571789.022496323
4827,3.632294465205632e-8
2,11, 1,11, 0, 7, 0.00,60.00,Sunday
4973,-0.9042458231636898
4826,1589735.8900120159
4827,6.29768237558892e-8
2,11, 1,11, 0, 8, 0.00,60.00,Sunday
4973,-0.9059676268295809
4826,1575205.0415633259
4827,4.73170302939252e-8
2,11, 1,11, 0, 9, 0.00,60.00,Sunday
4973,-0.90498975683939
4826,1556171.3166614609
4827,3.217905941710342e-8
2,11, 1,11, 0,10, 0.00,60.00,Sunday
4973,-0.8999755720371259
4826,1478930.2631331478
4827,1.4733814168721438e-8
2,11, 1,11, 0,11, 0.00,60.00,Sunday
4973,-0.893404429309178
4826,1479319.3139851145
4827,2.5937652026186698e-8
2,11, 1,11, 0,12, 0.00,60.00,Sunday
4973,-0.8881422480171312
4826,1440737.6781686412
4827,3.084892341576051e-8
2,11, 1,11, 0,13, 0.00,60.00,Sunday
4973,-0.8844434616723818
4826,1409691.0842738185
4827,2.609112925711088e-8
2,11, 1,11, 0,14, 0.00,60.00,Sunday
4973,-0.88134731472346
4826,1389626.2440187138
4827,1.7189449863508345e-8
2,11, 1,11, 0,15, 0.00,60.00,Sunday
4973,-0.8784291653912209
4826,1301371.3581971024
4827,6.389768714143429e-8
2,11, 1,11, 0,16, 0.00,60.00,Sunday
4973,-0.8749674085047535
4826,1272568.4240264926
4827,1.1766587704187259e-8
2,11, 1,11, 0,17, 0.00,60.00,Sunday
4973,-0.8732458577830307
4826,1312419.4804677312
4827,3.540208126651123e-8
2,11, 1,11, 0,18, 0.00,60.00,Sunday
4973,-0.8729713412534652
4826,1303130.3812090888
4827,3.565787665138487e-8
2,11, 1,11, 0,19, 0.00,60.00,Sunday
4973,-0.8708081749921492
4826,1281572.4647109728
4827,6.461391421908047e-8
2,11, 1,11, 0,20, 0.00,60.00,Sunday
4973,-0.8683724882883603
4826,1141849.7304295484
4827,3.182094587828033e-8
2,11, 1,11, 0,21, 0.00,60.00,Sunday
4973,-0.8658611546725968
4826,1085876.6184560294
4827,5.274500836094376e-8
2,11, 1,11, 0,22, 0.00,60.00,Sunday
4973,-0.8631450084858576
4826,1068496.7235317128
4827,2.9621105568367058e-8
2,11, 1,11, 0,23, 0.00,60.00,Sunday
4973,-0.8623927765256803
4826,1057313.3236371787
4827,3.1667468647356148e-8
2,11, 1,11, 0,24, 0.00,60.00,Sunday
4973,-0.8619613332478775
4826,997439.6258463671
4827,2.1026380636612886e-8
2,12, 1,12, 0, 1, 0.00,60.00,Monday
4973,-0.8632471005544113
4826,1141087.5234866713
4827,2.8913405003549998e-8
2,12, 1,12, 0, 2, 0.00,60.00,Monday
4973,-0.8647146412681375
4826,1153581.4753622439
4827,4.3075942812720316e-8
2,12, 1,12, 0, 3, 0.00,60.00,Monday
4973,-0.8667482644539868
4826,1185627.3610670632
4827,3.3304559110547419e-8
2,12, 1,12, 0, 4, 0.00,60.00,Monday
4973,-0.8683210378836663
4826,1215002.27336183
4827,5.9549165598582479e-8
2,12, 1,12, 0, 5, 0.00,60.00,Monday
4973,-0.8684186794322497
4826,1242347.6576170277
4827,5.4279780670185576e-8
2,12, 1,12, 0, 6, 0.00,60.00,Monday
4973,-0.8669537111037733
4826,1267630.1101349092
4827,2.8495605874923059e-8
2,12, 1,12, 0, 7, 0.00,60.00,Monday
4973,-0.8643735011148926
4826,1284973.817622995
4827,2.2868107407703066e-8
2,12, 1,12, 0, 8, 0.00,60.00,Monday
4973,-1.3084454526787098
4826,0.0
4827,0.0
2,12, 1,12, 0, 9, 0.00,60.00,Monday
4973,-1.548024019258971
4826,0.0
4827,0.0
2,12, 1,12, 0,10, 0.00,60.00,Monday
4973,-1.551644801149724
4826,0.0
4827,0.0
2,12, 1,12, 0,11, 0.00,60.00,Monday
4973,-1.5538782397332199
4826,0.0
4827,0.0
2,12, 1,12, 0,12, 0.00,60.00,Monday
4973,-1.5606205066691208
4826,0.0
4827,0.0
2,12, 1,12, 0,13, 0.00,60.00,Monday
4973,-1.5643119505827965
4826,0.0
4827,0.0
2,12, 1,12, 0,14, 0.00,60.00,Monday
4973,-1.5709049171559229
4826,0.0
4827,0.0
2,12, 1,12, 0,15, 0.00,60.00,Monday
4973,-1.5704694628410328
4826,0.0
4827,0.0
2,12, 1,12, 0,16, 0.00,60.00,Monday
4973,-1.5631444603482428
4826,0.0
4827,0.0
2,12, 1,12, 0,17, 0.00,60.00,Monday
4973,-1.5531063065309457
4826,0.0
4827,0.0
2,12, 1,12, 0,18, 0.00,60.00,Monday
4973,-1.5442588045187953
4826,0.0
4827,0.0
2,12, 1,12, 0,19, 0.00,60.00,Monday
4973,-1.5432695709386475
4826,0.0
4827,0.0
2,12, 1,12, 0,20, 0.00,60.00,Monday
4973,-1.5377700252508067
4826,0.0
4827,0.0
2,12, 1,12, 0,21, 0.00,60.00,Monday
4973,-1.5414593190956294
4826,0.0
4827,0.0
2,12, 1,12, 0,22, 0.00,60.00,Monday
4973,-1.088736015788351
4826,2043926.5587303793
4827,8.882921065378469e-8
2,12, 1,12, 0,23, 0.00,60.00,Monday
4973,-0.9354821723643949
4826,1359902.7576295927
4827,3.652758095995523e-8
2,12, 1,12, 0,24, 0.00,60.00,Monday
4973,-0.9246235525175944
4826,1249024.6509075466
4827,5.325659913069103e-8
2,13, 1,13, 0, 1, 0.00,60.00,Tuesday
4973,-0.9181349880085763
4826,1427252.453784711
4827,4.411050778584524
2,13, 1,13, 0, 2, 0.00,60.00,Tuesday
4973,-0.9125537617928277
4826,1418255.3093291349
4827,4.640128281607758e-8
2,13, 1,13, 0, 3, 0.00,60.00,Tuesday
4973,-0.9078094669650291
4826,1412740.4264776447
4827,4.757794158649631e-8
2,13, 1,13, 0, 4, 0.00,60.00,Tuesday
4973,-0.903554625274553
4826,1407549.8400791859
4827,1.9338131096446888e-8
2,13, 1,13, 0, 5, 0.00,60.00,Tuesday
4973,-0.8994657218584423
4826,1406729.7656372064
4827,1.816147232602816e-8
2,13, 1,13, 0, 6, 0.00,60.00,Tuesday
4973,-0.8955133756852567
4826,1410160.8240273498
4827,8.052438715822064e-8
2,13, 1,13, 0, 7, 0.00,60.00,Tuesday
4973,-0.8928365449025627
4826,1411949.3565126355
4827,2.4556356947869064e-8