Program Version,EnergyPlus, Version 8.7.0-78a111df4a, YMD=2019.05.28 05:48
1,5,Environment Title[],Latitude[deg],Longitude[deg],Time Zone[],Elevation[m]
2,6,Day of Simulation[],Month[],Day of Month[],DST Indicator[1=yes 0=no],Hour[],StartMinute[],EndMinute[],DayType
3,3,Cumulative Day of Simulation[],Month[],Day of Month[],DST Indicator[1=yes 0=no],DayType  ! When Daily Report Variables Requested
4,2,Cumulative Days of Simulation[],Month[]  ! When Monthly Report Variables Requested
5,1,Cumulative Days of Simulation[] ! When Run Period Report Variables Requested
4826,1,BEDROOM2.2,Zone Ideal Loads Zone Total Heating Energy [J] !Hourly
4827,1,BEDROOM2.2,Zone Ideal Loads Zone Total Cooling Energy [J] !Hourly
4973,1,BEDROOM2.2,Zone Thermal Comfort Fanger Model PMV [] !Hourly
End of Data Dictionary
1,RUNPERIOD,  29.58, 106.47,   8.00, 259.10
2,1, 1, 1, 0, 1, 0.00,60.00,Thursday
4973,-1.03967979262731
4826,2184743.698015187
4827,5.536590337710963e-8
2,1, 1, 1, 0, 2, 0.00,60.00,Thursday
4973,-1.033254649689272
4826,2202592.0361534699
4827,5.494484867085703e-8
2,1, 1, 1, 0, 3, 0.00,60.00,Thursday
4973,-1.0258362002574742
4826,2141687.7349925797
4827,3.877858034684323e-8
2,1, 1, 1, 0, 4, 0.00,60.00,Thursday
4973,-1.019421904733411
4826,2110014.5054730579
4827,7.755716069368646e-8
2,1, 1, 1, 0, 5, 0.00,60.00,Thursday
4973,-1.0167800789053736
4826,2131996.798947599
4827,2.2100721253082157e-8
2,1, 1, 1, 0, 6, 0.00,60.00,Thursday
4973,-1.0171603208783782
4826,2158961.6580502896
4827,2.3635493562323974e-8
2,1, 1, 1, 0, 7, 0.00,60.00,Thursday
4973,-1.0196676146070989
4826,2181033.64856125
4827,6.875779945403338e-8
2,1, 1, 1, 0, 8, 0.00,60.00,Thursday
4973,-1.6339879921484662
4826,0.0
4827,0.0
2,1, 1, 1, 0, 9, 0.00,60.00,Thursday
4973,-1.9931285908881269
4826,0.0
4827,0.0
2,1, 1, 1, 0,10, 0.00,60.00,Thursday
4973,-2.0353934864330385
4826,0.0
4827,0.0
2,1, 1, 1, 0,11, 0.00,60.00,Thursday
4973,-2.0382905308262755
4826,0.0
4827,0.0
2,1, 1, 1, 0,12, 0.00,60.00,Thursday
4973,-2.029482673255557
4826,0.0
4827,0.0
2,1, 1, 1, 0,13, 0.00,60.00,Thursday
4973,-2.007698009063123
4826,0.0
4827,0.0
2,1, 1, 1, 0,14, 0.00,60.00,Thursday
4973,-1.9686169572329418
4826,0.0
4827,0.0
2,1, 1, 1, 0,15, 0.00,60.00,Thursday
4973,-1.9206297865611484
4826,0.0
4827,0.0
2,1, 1, 1, 0,16, 0.00,60.00,Thursday
4973,-1.860014892769037
4826,0.0
4827,0.0
2,1, 1, 1, 0,17, 0.00,60.00,Thursday
4973,-1.7914260903223527
4826,0.0
4827,0.0
2,1, 1, 1, 0,18, 0.00,60.00,Thursday
4973,-1.7322162469095513
4826,0.0
4827,0.0
2,1, 1, 1, 0,19, 0.00,60.00,Thursday
4973,-1.6876712472672462
4826,0.0
4827,0.0
2,1, 1, 1, 0,20, 0.00,60.00,Thursday
4973,-1.6647679303318697
4826,0.0
4827,0.0
2,1, 1, 1, 0,21, 0.00,60.00,Thursday
4973,-1.7052443794883355
4826,0.0
4827,0.0
2,1, 1, 1, 0,22, 0.00,60.00,Thursday
4973,-1.2174390364683359
4826,2758057.796624204
4827,1.0907797332038172e-7
2,1, 1, 1, 0,23, 0.00,60.00,Thursday
4973,-1.0470097568857753
4826,2050039.5808102783
4827,6.978098099352792e-8
2,1, 1, 1, 0,24, 0.00,60.00,Thursday
4973,-1.0441340289584318
4826,1959256.8651059843
4827,3.325340003357269e-8
2,2, 1, 2, 0, 1, 0.00,60.00,Friday
4973,-1.0427623522231016
4826,2159661.900983018
4827,7.112537952542136e-8
2,2, 1, 2, 0, 2, 0.00,60.00,Friday
4973,-1.0419815047262842
4826,2166083.7958971096
4827,8.185452315956354e-10
2,2, 1, 2, 0, 3, 0.00,60.00,Friday
4973,-1.0417543780644767
4826,2175665.85166073
4827,3.2230218494078147e-8
2,2, 1, 2, 0, 4, 0.00,60.00,Friday
4973,-1.0391567652657213
4826,2175059.8945744808
4827,3.396962711121887e-8
2,2, 1, 2, 0, 5, 0.00,60.00,Friday
4973,-1.0355863515989932
4826,2166320.0585531659
4827,2.2612312022829429e-8
2,2, 1, 2, 0, 6, 0.00,60.00,Friday
4973,-1.031984437241541
4826,2161407.8554303639
4827,8.656115824123845e-8
2,2, 1, 2, 0, 7, 0.00,60.00,Friday
4973,-1.028359016075254
4826,2151421.801667172
4827,7.305516191991046e-8
2,2, 1, 2, 0, 8, 0.00,60.00,Friday
4973,-1.6032305429787739
4826,0.0
4827,0.0
2,2, 1, 2, 0, 9, 0.00,60.00,Friday
4973,-1.9159624607657766
4826,0.0
4827,0.0
2,2, 1, 2, 0,10, 0.00,60.00,Friday
4973,-1.8990576925584329
4826,0.0
4827,0.0
2,2, 1, 2, 0,11, 0.00,60.00,Friday
4973,-1.8770197755065206
4826,0.0
4827,0.0
2,2, 1, 2, 0,12, 0.00,60.00,Friday
4973,-1.859245970148156
4826,0.0
4827,0.0
2,2, 1, 2, 0,13, 0.00,60.00,Friday
4973,-1.8409224084728873
4826,0.0
4827,0.0
2,2, 1, 2, 0,14, 0.00,60.00,Friday
4973,-1.8226810098036404
4826,0.0
4827,0.0
2,2, 1, 2, 0,15, 0.00,60.00,Friday
4973,-1.7942256531362964
4826,0.0
4827,0.0
2,2, 1, 2, 0,16, 0.00,60.00,Friday
4973,-1.7595504962442599
4826,0.0
4827,0.0
2,2, 1, 2, 0,17, 0.00,60.00,Friday
4973,-1.738820347826925
4826,0.0
4827,0.0
2,2, 1, 2, 0,18, 0.00,60.00,Friday
4973,-1.761851820268578
4826,0.0
4827,0.0
2,2, 1, 2, 0,19, 0.00,60.00,Friday
4973,-1.8071654708632524
4826,0.0
4827,0.0
2,2, 1, 2, 0,20, 0.00,60.00,Friday
4973,-1.8362231078380136
4826,0.0
4827,0.0
2,2, 1, 2, 0,21, 0.00,60.00,Friday
4973,-1.8654862869586453
4826,0.0
4827,0.0
2,2, 1, 2, 0,22, 0.00,60.00,Friday
4973,-1.2688457526017208
4826,3046926.4557993889
4827,4.009848453279119e-8
2,2, 1, 2, 0,23, 0.00,60.00,Friday
4973,-1.0575801297814607
4826,2099372.7695415897
4827,8.3082341006957e-8
2,2, 1, 2, 0,24, 0.00,60.00,Friday
4973,-1.0414896110824859
4826,1993593.7614346152
4827,3.5504399420460689e-8
2,3, 1, 3, 0, 1, 0.00,60.00,Saturday
4973,-1.0354447113138448
4826,2207078.0099366216
4827,9.760655798758804e-8
2,3, 1, 3, 0, 2, 0.00,60.00,Saturday
4973,-1.0342255992597905
4826,2246616.0157009887
4827,1.0784333426272497e-7
2,3, 1, 3, 0, 3, 0.00,60.00,Saturday
4973,-1.0369434730992649
4826,2264337.9226695254
4827,8.748202162678354e-8
2,3, 1, 3, 0, 4, 0.00,60.00,Saturday
4973,-1.0392089648595356
4826,2265136.5089504837
4827,8.482174962409772e-8
2,3, 1, 3, 0, 5, 0.00,60.00,Saturday
4973,-1.0396356516675565
4826,2254153.6967888127
4827,3.356035449542105e-8
2,3, 1, 3, 0, 6, 0.00,60.00,Saturday
4973,-1.038521822535884
4826,2228801.1245524308
4827,7.8580342233181e-8
2,3, 1, 3, 0, 7, 0.00,60.00,Saturday
4973,-1.0352485115749793
4826,2183108.4857689228
4827,5.5354121286654848e-8
2,3, 1, 3, 0, 8, 0.00,60.00,Saturday
4973,-1.030082994523675
4826,2132942.9816265238
4827,9.868927008938044e-8
2,3, 1, 3, 0, 9, 0.00,60.00,Saturday
4973,-1.025630481522845
4826,2135080.322919534
4827,1.1009433364961296e-7
2,3, 1, 3, 0,10, 0.00,60.00,Saturday
4973,-1.0205456498037207
4826,2080140.5221285886
4827,3.4583536034915599e-8
2,3, 1, 3, 0,11, 0.00,60.00,Saturday
4973,-1.0162656544734539
4826,2085474.4862613918
4827,6.701839083689265e-8
2,3, 1, 3, 0,12, 0.00,60.00,Saturday
4973,-1.0129348365206504
4826,2040117.5558280755
4827,2.404476617812179e-8
2,3, 1, 3, 0,13, 0.00,60.00,Saturday
4973,-1.0088858631132703
4826,1998207.596282521
4827,0.0
2,3, 1, 3, 0,14, 0.00,60.00,Saturday
4973,-1.0046542974634392
4826,1959666.9035702095
4827,7.817106961738318e-8
2,3, 1, 3, 0,15, 0.00,60.00,Saturday
4973,-1.0001345545280545
4826,1893110.4002203234
4827,7.7454842539737e-8
2,3, 1, 3, 0,16, 0.00,60.00,Saturday
4973,-0.9938706018744246
4826,1875416.7263336934
4827,1.759872247930616e-8
2,3, 1, 3, 0,17, 0.00,60.00,Saturday
4973,-0.9890951472283242
4826,1904745.0852144154
4827,4.7475623432546857e-8
2,3, 1, 3, 0,18, 0.00,60.00,Saturday
4973,-0.9852110497089752
4826,1890254.7900709212
4827,3.0183855415089059e-8
2,3, 1, 3, 0,19, 0.00,60.00,Saturday
4973,-0.9791941988482299
4826,1859646.295830756
4827,2.9774582799291239e-8
2,3, 1, 3, 0,20, 0.00,60.00,Saturday
4973,-0.9724038858981658
4826,1720427.7878129576
4827,3.269065018685069e-8
2,3, 1, 3, 0,21, 0.00,60.00,Saturday
4973,-0.9647790017880944
4826,1651317.588746338
4827,1.4836132322670892e-9
2,3, 1, 3, 0,22, 0.00,60.00,Saturday
4973,-0.9570662732038362
4826,1626005.916538716
4827,7.013909453235101e-8
2,3, 1, 3, 0,23, 0.00,60.00,Saturday
4973,-0.9511332549577054
4826,1616109.5144865486
4827,5.341007636161521e-8
2,3, 1, 3, 0,24, 0.00,60.00,Saturday
4973,-0.9454402530515188
4826,1552006.105498841
4827,7.264588930411264e-8
2,4, 1, 4, 0, 1, 0.00,60.00,Sunday
4973,-0.9420856034055919
4826,1689504.094660116
4827,5.786142139120329
2,4, 1, 4, 0, 2, 0.00,60.00,Sunday
4973,-0.9381515703018866
4826,1691790.0399820163
4827,6.266986929404084e-8
2,4, 1, 4, 0, 3, 0.00,60.00,Sunday
4973,-0.9351876141637384
4826,1673918.8155838098
4827,5.438209882413503e-8
2,4, 1, 4, 0, 4, 0.00,60.00,Sunday
4973,-0.9322143664267688
4826,1661272.2093166025
4827,6.3437255448661748e-9
2,4, 1, 4, 0, 5, 0.00,60.00,Sunday
4973,-0.9288501366051313
4826,1652658.2113946174
4827,6.318146006378811e-8
2,4, 1, 4, 0, 6, 0.00,60.00,Sunday
4973,-0.9254384957527607
4826,1649832.9038577174
4827,9.341647455585189e-8
2,4, 1, 4, 0, 7, 0.00,60.00,Sunday
4973,-0.9224988865593132
4826,1646348.149489336
4827,6.650680006714538e-8
2,4, 1, 4, 0, 8, 0.00,60.00,Sunday
4973,-0.919947584234589
4826,1635635.5468866765
4827,2.4975861379061827e-8
2,4, 1, 4, 0, 9, 0.00,60.00,Sunday
4973,-0.91924093901993
4826,1673576.7236457144
4827,2.440287971694488e-8
2,4, 1, 4, 0,10, 0.00,60.00,Sunday
4973,-0.9185410815841512
4826,1642398.1748798886
4827,3.8676262192893776e-8
2,4, 1, 4, 0,11, 0.00,60.00,Sunday
4973,-0.9179973985252469
4826,1667507.338876078
4827,6.52278231427772e-8
2,4, 1, 4, 0,12, 0.00,60.00,Sunday
4973,-0.9195026897262862
4826,1630037.250108569
4827,5.3358917284640486e-8
2,4, 1, 4, 0,13, 0.00,60.00,Sunday
4973,-0.9192413732387756
4826,1581833.0318118516
4827,6.650680006714538e-8
2,4, 1, 4, 0,14, 0.00,60.00,Sunday
4973,-0.9185738065818512
4826,1522546.5719374049
4827,1.6831336324685254e-8
2,4, 1, 4, 0,15, 0.00,60.00,Sunday
4973,-0.9152046852685389
4826,1414086.0982140213
4827,4.5429260353557768e-8
2,4, 1, 4, 0,16, 0.00,60.00,Sunday
4973,-0.9072637522024468
4826,1361335.2140487456
4827,1.9900880943168887e-8
2,4, 1, 4, 0,17, 0.00,60.00,Sunday
4973,-0.8994498144540132
4826,1397059.030513975
4827,3.6629899113904688e-8
2,4, 1, 4, 0,18, 0.00,60.00,Sunday
4973,-0.8959517604469505
4826,1412692.2341099745
4827,3.100240064668469e-8
2,4, 1, 4, 0,19, 0.00,60.00,Sunday
4973,-0.8934467540722375
4826,1433000.5580572023
4827,5.310312189976685e-8
2,4, 1, 4, 0,20, 0.00,60.00,Sunday
4973,-0.8904785071060228
4826,1341935.467967981
4827,1.979856278921943e-8
2,4, 1, 4, 0,21, 0.00,60.00,Sunday
4973,-0.8890886809114817
4826,1313632.1968153343
4827,5.6274984672199938e-9
2,4, 1, 4, 0,22, 0.00,60.00,Sunday
4973,-0.8876741403030538
4826,1313955.7502878796
4827,2.7677060643327424e-8
2,4, 1, 4, 0,23, 0.00,60.00,Sunday
4973,-0.8858704555586769
4826,1311209.07610763
4827,2.48121523327427e-8
2,4, 1, 4, 0,24, 0.00,60.00,Sunday
4973,-0.8839781411006789
4826,1247706.3916436614
4827,3.069544618483633e-9
2,5, 1, 5, 0, 1, 0.00,60.00,Monday
4973,-0.8843951462361361
4826,1383388.3388796738
4827,3.204547738278052e-8
2,5, 1, 5, 0, 2, 0.00,60.00,Monday
4973,-0.8837183276197274
4826,1378838.2175779662
4827,4.8191850510193038e-8
2,5, 1, 5, 0, 3, 0.00,60.00,Monday
4973,-0.8841464955392487
4826,1395601.6354660395
4827,5.269384928396903e-9
2,5, 1, 5, 0, 4, 0.00,60.00,Monday
4973,-0.8864057700292557
4826,1415700.652629607
4827,8.44124770082999e-9
2,5, 1, 5, 0, 5, 0.00,60.00,Monday
4973,-0.8897770714526146
4826,1429231.6493191794
4827,2.716546987358015e-8
2,5, 1, 5, 0, 6, 0.00,60.00,Monday
4973,-0.8928845822915115
4826,1444646.1181075704
4827,3.637410372903105e-8
2,5, 1, 5, 0, 7, 0.00,60.00,Monday
4973,-0.8957759281203712
4826,1460658.986650235
4827,2.644924279593397e-8
2,5, 1, 5, 0, 8, 0.00,60.00,Monday
4973,-1.3911190897247528
4826,0.0
4827,0.0
2,5, 1, 5, 0, 9, 0.00,60.00,Monday
4973,-1.6583644814849275
4826,0.0
4827,0.0
2,5, 1, 5, 0,10, 0.00,60.00,Monday
4973,-1.677218700318781
4826,0.0
4827,0.0
2,5, 1, 5, 0,11, 0.00,60.00,Monday
4973,-1.686159336153671
4826,0.0
4827,0.0
2,5, 1, 5, 0,12, 0.00,60.00,Monday
4973,-1.6923835722512966
4826,0.0
4827,0.0
2,5, 1, 5, 0,13, 0.00,60.00,Monday
4973,-1.6939370840323252
4826,0.0
4827,0.0
2,5, 1, 5, 0,14, 0.00,60.00,Monday
4973,-1.6883873884926706
4826,0.0
4827,0.0
2,5, 1, 5, 0,15, 0.00,60.00,Monday
4973,-1.6809043026606783
4826,0.0
4827,0.0
2,5, 1, 5, 0,16, 0.00,60.00,Monday
4973,-1.6726035232470263
4826,0.0
4827,0.0
2,5, 1, 5, 0,17, 0.00,60.00,Monday
4973,-1.669519409161072
4826,0.0
4827,0.0
2,5, 1, 5, 0,18, 0.00,60.00,Monday
4973,-1.6684511728068812
4826,0.0
4827,0.0
2,5, 1, 5, 0,19, 0.00,60.00,Monday
4973,-1.6712961985447444
4826,0.0
4827,0.0
2,5, 1, 5, 0,20, 0.00,60.00,Monday
4973,-1.664698718290742
4826,0.0
4827,0.0
2,5, 1, 5, 0,21, 0.00,60.00,Monday
4973,-1.6796319410700216
4826,0.0
4827,0.0
2,5, 1, 5, 0,22, 0.00,60.00,Monday
4973,-1.1690859998646717
4826,2470489.814278217
4827,5.01239583172719e-8
2,5, 1, 5, 0,23, 0.00,60.00,Monday
4973,-0.9910008464157325
4826,1674706.1046043772
4827,2.921183295256924e-8
2,5, 1, 5, 0,24, 0.00,60.00,Monday
4973,-0.9800323181357893
4826,1572412.8438108918
4827,1.284092832065653e-8
2,6, 1, 6, 0, 1, 0.00,60.00,Tuesday
4973,-0.9717285024586249
4826,1764367.6362538404
4827,5.1612497672954309
2,6, 1, 6, 0, 2, 0.00,60.00,Tuesday
4973,-0.9648298460242992
4826,1766366.6298406367
4827,3.3304559110547419e-8
2,6, 1, 6, 0, 3, 0.00,60.00,Tuesday
4973,-0.9571790663842164
4826,1724282.137959776
4827,3.565787665138487e-8
2,6, 1, 6, 0, 4, 0.00,60.00,Tuesday
4973,-0.9500382554624274
4826,1696052.1380927165
4827,1.1050360626541078e-8
2,6, 1, 6, 0, 5, 0.00,60.00,Tuesday
4973,-0.9436385177615229
4826,1686029.4189338675
4827,8.185452315956354e-9
2,6, 1, 6, 0, 6, 0.00,60.00,Tuesday
4973,-0.9375620402872227
4826,1671131.8448420489
4827,2.291926648467779e-8
2,6, 1, 6, 0, 7, 0.00,60.00,Tuesday
4973,-0.932577288471527
4826,1658382.6929343465
4827,4.2155079427175227e-8
2,6, 1, 6, 0, 8, 0.00,60.00,Tuesday
4973,-1.4267069096344725
4826,0.0
4827,0.0
2,6, 1, 6, 0, 9, 0.00,60.00,Tuesday
4973,-1.7033543510449592
4826,0.0
4827,0.0
2,6, 1, 6, 0,10, 0.00,60.00,Tuesday
4973,-1.6996600687505586
4826,0.0
4827,0.0
2,6, 1, 6, 0,11, 0.00,60.00,Tuesday
4973,-1.6801785487182053
4826,0.0
4827,0.0
2,6, 1, 6, 0,12, 0.00,60.00,Tuesday
4973,-1.6567576703848486
4826,0.0
4827,0.0
2,6, 1, 6, 0,13, 0.00,60.00,Tuesday
4973,-1.6240543080714727
4826,0.0
4827,0.0
2,6, 1, 6, 0,14, 0.00,60.00,Tuesday
4973,-1.5731943972178895
4826,0.0
4827,0.0
2,6, 1, 6, 0,15, 0.00,60.00,Tuesday
4973,-1.5288417894590399
4826,0.0
4827,0.0
2,6, 1, 6, 0,16, 0.00,60.00,Tuesday
4973,-1.4752230000428819
4826,0.0
4827,0.0
2,6, 1, 6, 0,17, 0.00,60.00,Tuesday
4973,-1.439604061332738
4826,0.0
4827,0.0
2,6, 1, 6, 0,18, 0.00,60.00,Tuesday
4973,-1.4425643834404539
4826,0.0
4827,0.0
2,6, 1, 6, 0,19, 0.00,60.00,Tuesday
4973,-1.479164042329732
4826,0.0
4827,0.0
2,6, 1, 6, 0,20, 0.00,60.00,Tuesday
4973,-1.5074256589211444
4826,0.0
4827,0.0
2,6, 1, 6, 0,21, 0.00,60.00,Tuesday
4973,-1.5420045636352109
4826,0.0
4827,0.0
2,6, 1, 6, 0,22, 0.00,60.00,Tuesday
4973,-1.0987980707968906
4826,2178220.6596129306
4827,5.1875304052373397e-8
2,6, 1, 6, 0,23, 0.00,60.00,Tuesday
4973,-0.9447553194525048
4826,1520592.4978578757
4827,6.093046067690011e-8
2,6, 1, 6, 0,24, 0.00,60.00,Tuesday
4973,-0.9363228426085866
4826,1436446.2874214329
4827,3.893205757776741e-8
2,7, 1, 7, 0, 1, 0.00,60.00,Wednesday
4973,-0.9331758764503202
4826,1643143.131597068
4827,4.747196921276294e-8
2,7, 1, 7, 0, 2, 0.00,60.00,Wednesday
4973,-0.9320510347457185
4826,1667258.774246292
4827,2.696083356568124e-8
2,7, 1, 7, 0, 3, 0.00,60.00,Wednesday
4973,-0.9330792587185581
4826,1705709.934725747
4827,1.0180656317970716e-8
2,7, 1, 7, 0, 4, 0.00,60.00,Wednesday
4973,-0.9358542257163112
4826,1760221.0186008004
4827,3.8829739423817958e-8
2,7, 1, 7, 0, 5, 0.00,60.00,Wednesday
4973,-0.9408307875177144
4826,1831050.305751123
4827,8.124061423586682e-8
2,7, 1, 7, 0, 6, 0.00,60.00,Wednesday
4973,-0.9474625383086898
4826,1899253.2790632358
4827,0.0
2,7, 1, 7, 0, 7, 0.00,60.00,Wednesday
4973,-0.9539222446064183
4826,1954066.6578197047
4827,4.686171450885013e-8
2,7, 1, 7, 0, 8, 0.00,60.00,Wednesday
4973,-1.5774425605686225
4826,0.0
4827,0.0
2,7, 1, 7, 0, 9, 0.00,60.00,Wednesday
4973,-1.906911776767742
4826,0.0
4827,0.0
2,7, 1, 7, 0,10, 0.00,60.00,Wednesday
4973,-1.9284606340160254
4826,0.0
4827,0.0
2,7, 1, 7, 0,11, 0.00,60.00,Wednesday
4973,-1.9257167251770898
4826,0.0
4827,0.0
2,7, 1, 7, 0,12, 0.00,60.00,Wednesday
4973,-1.900030718150188
4826,0.0
4827,0.0
2,7, 1, 7, 0,13, 0.00,60.00,Wednesday
4973,-1.8445582015228695
4826,0.0
4827,0.0
2,7, 1, 7, 0,14, 0.00,60.00,Wednesday
4973,-1.7606141352291383
4826,0.0
4827,0.0
2,7, 1, 7, 0,15, 0.00,60.00,Wednesday
4973,-1.6566731926950829
4826,0.0
4827,0.0
2,7, 1, 7, 0,16, 0.00,60.00,Wednesday
4973,-1.5277854346157814
4826,0.0
4827,0.0
2,7, 1, 7, 0,17, 0.00,60.00,Wednesday
4973,-1.4471611652915107
4826,0.0
4827,0.0
2,7, 1, 7, 0,18, 0.00,60.00,Wednesday
4973,-1.4542515488626347
4826,0.0
4827,0.0
2,7, 1, 7, 0,19, 0.00,60.00,Wednesday
4973,-1.4910137461603988
4826,0.0
4827,0.0
2,7, 1, 7, 0,20, 0.00,60.00,Wednesday
4973,-1.5179172551795384
4826,0.0
4827,0.0
2,7, 1, 7, 0,21, 0.00,60.00,Wednesday
4973,-1.5450107611714184
4826,0.0
4827,0.0
2,7, 1, 7, 0,22, 0.00,60.00,Wednesday
4973,-1.1210958609297564
4826,2111033.722193539
4827,5.809795311506605e-8
2,7, 1, 7, 0,23, 0.00,60.00,Wednesday
4973,-0.9753695349964152
4826,1506549.4940286766
4827,2.1742607714259067e-8
2,7, 1, 7, 0,24, 0.00,60.00,Wednesday
4973,-0.9665519774759559
4826,1428506.002539189
4827,8.236611392931082e-9
2,8, 1, 8, 0, 1, 0.00,60.00,Thursday
4973,-0.9623917666116767
4826,1638357.142089691
4827,6.112678910050399e-8
2,8, 1, 8, 0, 2, 0.00,60.00,Thursday
4973,-0.9585029730755779
4826,1652099.923872027
4827,5.949800652160775e-8
2,8, 1, 8, 0, 3, 0.00,60.00,Thursday
4973,-0.9552053338521303
4826,1679996.0684766654
4827,4.972662281943485e-8
2,8, 1, 8, 0, 4, 0.00,60.00,Thursday
4973,-0.9524678352987741
4826,1704443.125328092
4827,5.381934897741303e-8
2,8, 1, 8, 0, 5, 0.00,60.00,Thursday
4973,-0.9501234380954288
4826,1717430.3138252036
4827,2.936531018349342e-8
2,8, 1, 8, 0, 6, 0.00,60.00,Thursday
4973,-0.947599006453242
4826,1728914.329913803
4827,7.341327545873355e-8
2,8, 1, 8, 0, 7, 0.00,60.00,Thursday
4973,-0.9459154520765997
4826,1730333.681496099
4827,6.804157237638719e-9
2,8, 1, 8, 0, 8, 0.00,60.00,Thursday
4973,-1.4558055910084685
4826,0.0
4827,0.0
2,8, 1, 8, 0, 9, 0.00,60.00,Thursday
4973,-1.739083758996729
4826,0.0
4827,0.0
2,8, 1, 8, 0,10, 0.00,60.00,Thursday
4973,-1.7400923216671223
4826,0.0
4827,0.0
2,8, 1, 8, 0,11, 0.00,60.00,Thursday
4973,-1.725920381905861
4826,0.0
4827,0.0
2,8, 1, 8, 0,12, 0.00,60.00,Thursday
4973,-1.7011733102232587
4826,0.0
4827,0.0
2,8, 1, 8, 0,13, 0.00,60.00,Thursday
4973,-1.6715369231501445
4826,0.0
4827,0.0
2,8, 1, 8, 0,14, 0.00,60.00,Thursday
4973,-1.641448256474427
4826,0.0
4827,0.0
2,8, 1, 8, 0,15, 0.00,60.00,Thursday
4973,-1.6150909908961895
4826,0.0
4827,0.0
2,8, 1, 8, 0,16, 0.00,60.00,Thursday
4973,-1.5931118402942764
4826,0.0
4827,0.0
2,8, 1, 8, 0,17, 0.00,60.00,Thursday
4973,-1.5710195917318526
4826,0.0
4827,0.0
2,8, 1, 8, 0,18, 0.00,60.00,Thursday
4973,-1.5749230157273236
4826,0.0
4827,0.0
2,8, 1, 8, 0,19, 0.00,60.00,Thursday
4973,-1.5975261647012636
4826,0.0
4827,0.0
2,8, 1, 8, 0,20, 0.00,60.00,Thursday
4973,-1.614700163827051
4826,0.0
4827,0.0
2,8, 1, 8, 0,21, 0.00,60.00,Thursday
4973,-1.6299205182013954
4826,0.0
4827,0.0
2,8, 1, 8, 0,22, 0.00,60.00,Thursday
4973,-1.1470714151531716
4826,2301847.749251134
4827,3.9638292648191967e-8
2,8, 1, 8, 0,23, 0.00,60.00,Thursday
4973,-0.9790405580522372
4826,1574870.389426719
4827,3.304876372567378e-8
2,8, 1, 8, 0,24, 0.00,60.00,Thursday
4973,-0.9649869813520169
4826,1491740.3351062129
4827,5.310312189976685e-8
2,9, 1, 9, 0, 1, 0.00,60.00,Friday
4973,-0.959167138429897
4826,1713184.079994495
4827,5.434474457745506e-8
2,9, 1, 9, 0, 2, 0.00,60.00,Friday
4973,-0.9570548838191338
4826,1743969.0931889497
4827,5.832134775118902e-9
2,9, 1, 9, 0, 3, 0.00,60.00,Friday
4973,-0.955280235681059
4826,1753799.9973757119
4827,2.8597924028872513e-8
2,9, 1, 9, 0, 4, 0.00,60.00,Friday
4973,-0.9524856051847818
4826,1744888.4854599948
4827,1.759872247930616e-8
2,9, 1, 9, 0, 5, 0.00,60.00,Friday
4973,-0.9488272698703584
4826,1733893.4177254029
4827,4.62478055851534e-8
2,9, 1, 9, 0, 6, 0.00,60.00,Friday
4973,-0.9451602817999549
4826,1725875.4134358359
4827,4.282014742784668e-8
2,9, 1, 9, 0, 7, 0.00,60.00,Friday
4973,-0.9423738796645574
4826,1717867.511395424
4827,6.671143637504429e-8
2,9, 1, 9, 0, 8, 0.00,60.00,Friday
4973,-1.444415258601622
4826,0.0
4827,0.0
2,9, 1, 9, 0, 9, 0.00,60.00,Friday
4973,-1.7333440118491326
4826,0.0
4827,0.0
2,9, 1, 9, 0,10, 0.00,60.00,Friday
4973,-1.7527030733427927
4826,0.0
4827,0.0
2,9, 1, 9, 0,11, 0.00,60.00,Friday
4973,-1.754157177753016
4826,0.0
4827,0.0
2,9, 1, 9, 0,12, 0.00,60.00,Friday
4973,-1.7507004573378502
4826,0.0
4827,0.0
2,9, 1, 9, 0,13, 0.00,60.00,Friday
4973,-1.7469607313308069
4826,0.0
4827,0.0
2,9, 1, 9, 0,14, 0.00,60.00,Friday
4973,-1.738134095844447
4826,0.0
4827,0.0
2,9, 1, 9, 0,15, 0.00,60.00,Friday
4973,-1.7334817641267604
4826,0.0
4827,0.0
2,9, 1, 9, 0,16, 0.00,60.00,Friday
4973,-1.7292520603809174
4826,0.0
4827,0.0
2,9, 1, 9, 0,17, 0.00,60.00,Friday
4973,-1.7320937671627246
4826,0.0
4827,0.0
2,9, 1, 9, 0,18, 0.00,60.00,Friday
4973,-1.7413486464650617
4826,0.0
4827,0.0
2,9, 1, 9, 0,19, 0.00,60.00,Friday
4973,-1.748194728220041
4826,0.0
4827,0.0
2,9, 1, 9, 0,20, 0.00,60.00,Friday
4973,-1.7395489334453307
4826,0.0
4827,0.0
2,9, 1, 9, 0,21, 0.00,60.00,Friday
4973,-1.7387562028782065
4826,0.0
4827,0.0
2,9, 1, 9, 0,22, 0.00,60.00,Friday
4973,-1.1967064061108235
4826,2615711.9354517038
4827,4.396611075208057e-8
2,9, 1, 9, 0,23, 0.00,60.00,Friday
4973,-1.0126930399832584
4826,1775343.8625146065
4827,3.023501449206378e-8
2,9, 1, 9, 0,24, 0.00,60.00,Friday
4973,-0.9993062014401226
4826,1639818.2767923605
4827,3.601599019020796e-8
2,10, 1,10, 0, 1, 0.00,60.00,Saturday
4973,-0.9915973904603046
4826,1799122.5920024766
4827,1.939980171473264
2,10, 1,10, 0, 2, 0.00,60.00,Saturday
4973,-0.9856426639534979
4826,1776720.6353841339
4827,7.49992068449501e-8
2,10, 1,10, 0, 3, 0.00,60.00,Saturday
4973,-0.9798758912737884
4826,1739871.2472316102
4827,4.773141881742049e-8
2,10, 1,10, 0, 4, 0.00,60.00,Saturday
4973,-0.9744895501472726
4826,1713615.2471888234
4827,3.090008249273524e-8
2,10, 1,10, 0, 5, 0.00,60.00,Saturday
4973,-0.9690451699311626
4826,1698812.7774964129
4827,3.744844434550032e-8
2,10, 1,10, 0, 6, 0.00,60.00,Saturday
4973,-0.964168535641922
4826,1691854.6261358825
4827,3.821583050012123e-8
2,10, 1,10, 0, 7, 0.00,60.00,Saturday
4973,-0.9601210120941378
4826,1683972.1720096276
4827,6.000959729135502e-8
2,10, 1,10, 0, 8, 0.00,60.00,Saturday
4973,-0.9570177455482432
4826,1669775.2957064217
4827,4.1834482544800269e-8
2,10, 1,10, 0, 9, 0.00,60.00,Saturday
4973,-0.954418162553791
4826,1720246.1386985984
4827,3.3662672649370509e-8
2,10, 1,10, 0,10, 0.00,60.00,Saturday
4973,-0.9506457029869606
4826,1685998.3846504428
4827,2.112869879056234e-8
2,10, 1,10, 0,11, 0.00,60.00,Saturday
4973,-0.9466474001417886
4826,1684081.4113696854
4827,2.588649294921197e-8
2,10, 1,10, 0,12, 0.00,60.00,Saturday
4973,-0.9430393411876268
4826,1610089.9473005706
4827,6.154436960059684e-8
2,10, 1,10, 0,13, 0.00,60.00,Saturday
4973,-0.9389017965012572
4826,1526098.835251303
4827,4.665707820095122e-8
2,10, 1,10, 0,14, 0.00,60.00,Saturday
4973,-0.9358576078644483
4826,1446355.2021318845
4827,1.0794565241667442e-8
2,10, 1,10, 0,15, 0.00,60.00,Saturday
4973,-0.9264763748825007
4826,1286619.6544285529
4827,5.7707438827492299e-8
2,10, 1,10, 0,16, 0.00,60.00,Saturday
4973,-0.9098927035565071
4826,1189462.081134212
4827,3.5709035728359598e-8
2,10, 1,10, 0,17, 0.00,60.00,Saturday
4973,-0.8933914624926218
4826,1216109.3262318522
4827,6.133973329269793e-8
2,10, 1,10, 0,18, 0.00,60.00,Saturday
4973,-0.8773650501298592
4826,1198501.9056822377
4827,1.979856278921943e-8
2,10, 1,10, 0,19, 0.00,60.00,Saturday
4973,-0.8818989386131932
4826,1272905.3664269883
4827,2.9518787414417603e-8
2,10, 1,10, 0,20, 0.00,60.00,Saturday
4973,-0.8836890277895853
4826,1205082.8010954939
4827,9.08073616301408e-9
2,10, 1,10, 0,21, 0.00,60.00,Saturday
4973,-0.884277697690618
4826,1192242.4374129642
4827,4.752678250952158e-8
2,10, 1,10, 0,22, 0.00,60.00,Saturday
4973,-0.8803783223773655
4826,1184415.9292955725
4827,2.6142288334085607e-8
2,10, 1,10, 0,23, 0.00,60.00,Saturday
4973,-0.8744514212430401
4826,1189271.794664105
4827,3.396962711121887e-8
2,10, 1,10, 0,24, 0.00,60.00,Saturday
4973,-0.8690738572817702
4826,1173401.987821946
4827,4.0313352656085047e-8
2,11, 1,11, 0, 1, 0.00,60.00,Sunday
4973,-0.8708562314579402
4826,1380384.2195837883
4827,4.8889400464499236e-8
2,11, 1,11, 0, 2, 0.00,60.00,Sunday
4973,-0.8767172429564663
4826,1450651.3783689906
4827,4.297362465877086e-8
2,11, 1,11, 0, 3, 0.00,60.00,Sunday
4973,-0.8837993078704279
4826,1488279.8208048025
4827,1.2892087397631258e-8
2,11, 1,11, 0, 4, 0.00,60.00,Sunday
4973,-0.8878797505319757
4826,1503777.2785065969
4827,2.3993607101147064e-8
2,11, 1,11, 0, 5, 0.00,60.00,Sunday
4973,-0.8894489497044823
4826,1520080.000749696
4827,4.409912435221486e-8
2,11, 1,11, 0, 6, 0.00,60.00,Sunday
4973,-0.8918028058531083
4826,1541059.1534112786
4827,5.975380190648139e-8
2,11, 1,11, 0, 7, 0.00,60.00,Sunday
4973,-0.8951189223144397
4826,1560034.8091269567
4827,6.650680006714538e-9
2,11, 1,11, 0, 8, 0.00,60.00,Sunday
4973,-0.8969053389268346
4826,1546112.6900898754
4827,7.660901246708818e-8
2,11, 1,11, 0, 9, 0.00,60.00,Sunday
4973,-0.8954532705683531
4826,1523806.221864955
4827,5.2591531130019578e-8
2,11, 1,11, 0,10, 0.00,60.00,Sunday
4973,-0.8895378734214967
4826,1440805.5316009629
4827,3.0388491722987968e-8
2,11, 1,11, 0,11, 0.00,60.00,Sunday
4973,-0.8819696006690441
4826,1435840.816254379
4827,2.5426061256439426e-8
2,11, 1,11, 0,12, 0.00,60.00,Sunday
4973,-0.8756076382309223
4826,1391662.4359682939
4827,2.8495605874923059e-8
2,11, 1,11, 0,13, 0.00,60.00,Sunday
4973,-0.8708826809012693
4826,1355606.2679108349
4827,4.077378434885759e-8
2,11, 1,11, 0,14, 0.00,60.00,Sunday
4973,-0.8670065185441998
4826,1331973.7090609889
4827,5.745164344261866e-8
2,11, 1,11, 0,15, 0.00,60.00,Sunday
4973,-0.863245295499832
4826,1239258.149262413
4827,6.338609637168702e-8
2,11, 1,11, 0,16, 0.00,60.00,Sunday
4973,-0.8593145405056554
4826,1207647.2398417188
4827,4.338289727456868e-8
2,11, 1,11, 0,17, 0.00,60.00,Sunday
4973,-0.8576359428770195
4826,1247790.2936542733
4827,4.7987214202294129e-8
2,11, 1,11, 0,18, 0.00,60.00,Sunday
4973,-0.8577707601030873
4826,1240770.7481906536
4827,2.240767571493052e-8
2,11, 1,11, 0,19, 0.00,60.00,Sunday
4973,-0.8561114837459443
4826,1222021.674032233
4827,1.7905676941154526e-8
2,11, 1,11, 0,20, 0.00,60.00,Sunday
4973,-0.8538714345696645
4826,1083415.9436308724
4827,4.885691851086449e-8
2,11, 1,11, 0,21, 0.00,60.00,Sunday
4973,-0.8518016102829102
4826,1030492.0350221336
4827,1.376179170620162e-8
2,11, 1,11, 0,22, 0.00,60.00,Sunday
4973,-0.8492587570366653
4826,1014404.2462441884
4827,6.870664037705865e-8
2,11, 1,11, 0,23, 0.00,60.00,Sunday
4973,-0.8485933064814948
4826,1003812.7391300714
4827,2.997921910719015e-8
2,11, 1,11, 0,24, 0.00,60.00,Sunday
4973,-0.8481786083110032
4826,944186.4821165357
4827,2.2151880330056885e-8
2,12, 1,12, 0, 1, 0.00,60.00,Monday
4973,-0.8493721506115308
4826,1087188.662638381
4827,2.1307755559973886e-8
2,12, 1,12, 0, 2, 0.00,60.00,Monday
4973,-0.8508172315088112
4826,1100056.806094142
4827,2.9416469260468149e-8
2,12, 1,12, 0, 3, 0.00,60.00,Monday
4973,-0.8530914744479945
4826,1133640.6726630624
4827,4.0671466194908137e-8
2,12, 1,12, 0, 4, 0.00,60.00,Monday
4973,-0.8548205479353772
4826,1164126.7012101953
4827,2.4658675101818518e-8
2,12, 1,12, 0, 5, 0.00,60.00,Monday
4973,-0.8550099624028488
4826,1192221.1297623383
4827,1.580815478519071e-8
2,12, 1,12, 0, 6, 0.00,60.00,Monday
4973,-0.853603327873391
4826,1218058.5531054594
4827,4.8908077587839219e-8
2,12, 1,12, 0, 7, 0.00,60.00,Monday
4973,-0.8510477965145894
4826,1235690.170198733
4827,2.7267788027529606e-8
2,12, 1,12, 0, 8, 0.00,60.00,Monday
4973,-1.2876457609837098
4826,0.0
4827,0.0
2,12, 1,12, 0, 9, 0.00,60.00,Monday
4973,-1.519137468361548
4826,0.0
4827,0.0
2,12, 1,12, 0,10, 0.00,60.00,Monday
4973,-1.5209439284572697
4826,0.0
4827,0.0
2,12, 1,12, 0,11, 0.00,60.00,Monday
4973,-1.5209732154183882
4826,0.0
4827,0.0
2,12, 1,12, 0,12, 0.00,60.00,Monday
4973,-1.5251289526204053
4826,0.0
4827,0.0
2,12, 1,12, 0,13, 0.00,60.00,Monday
4973,-1.5261741112607428
4826,0.0
4827,0.0
2,12, 1,12, 0,14, 0.00,60.00,Monday
4973,-1.5304900951036405
4826,0.0
4827,0.0
2,12, 1,12, 0,15, 0.00,60.00,Monday
4973,-1.5279065222078048
4826,0.0
4827,0.0
2,12, 1,12, 0,16, 0.00,60.00,Monday
4973,-1.5190156104901874
4826,0.0
4827,0.0
2,12, 1,12, 0,17, 0.00,60.00,Monday
4973,-1.5088122708152439
4826,0.0
4827,0.0
2,12, 1,12, 0,18, 0.00,60.00,Monday
4973,-1.500432220124798
4826,0.0
4827,0.0
2,12, 1,12, 0,19, 0.00,60.00,Monday
4973,-1.5003633153908947
4826,0.0
4827,0.0
2,12, 1,12, 0,20, 0.00,60.00,Monday
4973,-1.4955374149607066
4826,0.0
4827,0.0
2,12, 1,12, 0,21, 0.00,60.00,Monday
4973,-1.499555086406197
4826,0.0
4827,0.0
2,12, 1,12, 0,22, 0.00,60.00,Monday
4973,-1.0627509396218274
4826,1932646.2923314302
4827,5.131767011334887e-8
2,12, 1,12, 0,23, 0.00,60.00,Monday
4973,-0.9148717792444965
4826,1266821.8769211954
4827,2.9621105568367058e-8
2,12, 1,12, 0,24, 0.00,60.00,Monday
4973,-0.9043748606020519
4826,1159045.0734135817
4827,4.6145487431203949e-8
2,13, 1,13, 0, 1, 0.00,60.00,Tuesday
4973,-0.8980530186285611
4826,1338678.4467742835
4827,4.142868901113417
2,13, 1,13, 0, 2, 0.00,60.00,Tuesday
4973,-0.8926357493335522
4826,1330793.1344268856
4827,3.079776433878578e-8
2,13, 1,13, 0, 3, 0.00,60.00,Tuesday
4973,-0.8881178893621464
4826,1326991.0171218708
4827,5.448441697808448e-8
2,13, 1,13, 0, 4, 0.00,60.00,Tuesday
4973,-0.8840207118860137
4826,1323002.90373099
4827,9.976020010071807e-9
2,13, 1,13, 0, 5, 0.00,60.00,Tuesday
4973,-0.8800468934694085
4826,1322969.925312073
4827,2.000319909711834e-8
2,13, 1,13, 0, 6, 0.00,60.00,Tuesday
4973,-0.8762193583008706
4826,1327305.4039907458
4827,4.04156708100345e-8
2,13, 1,13, 0, 7, 0.00,60.00,Tuesday
4973,-0.8737055943607034
4826,1330299.7245096092
4827,6.000959729135502e-8