Program Version,EnergyPlus, Version 8.7.0-78a111df4a, YMD=2019.05.28 05:48
1,5,Environment Title[],Latitude[deg],Longitude[deg],Time Zone[],Elevation[m]
2,6,Day of Simulation[],Month[],Day of Month[],DST Indicator[1=yes 0=no],Hour[],StartMinute[],EndMinute[],DayType
3,3,Cumulative Day of Simulation[],Month[],Day of Month[],DST Indicator[1=yes 0=no],DayType  ! When Daily Report Variables Requested
4,2,Cumulative Days of Simulation[],Month[]  ! When Monthly Report Variables Requested
5,1,Cumulative Days of Simulation[] ! When Run Period Report Variables Requested
4826,1,BEDROOM2.2,Zone Ideal Loads Zone Total Heating Energy [J] !Hourly
4827,1,BEDROOM2.2,Zone Ideal Loads Zone Total Cooling Energy [J] !Hourly
4973,1,BEDROOM2.2,Zone Thermal Comfort Fanger Model PMV [] !Hourly
End of Data Dictionary
1,RUNPERIOD,  29.58, 106.47,   8.00, 259.10
2,1, 1, 1, 0, 1, 0.00,60.00,Thursday
4973,-1.0773750112050265
4826,2354587.066625265
4827,7.372875643341104e-8
2,1, 1, 1, 0, 2, 0.00,60.00,Thursday
4973,-1.0693481456930736
4826,2360937.010645113
4827,5.1338009590267579
2,1, 1, 1, 0, 3, 0.00,60.00,Thursday
4973,-1.0611381550114525
4826,2295284.1758438206
4827,7.5203843152849e-8
2,1, 1, 1, 0, 4, 0.00,60.00,Thursday
4973,-1.0543485557276238
4826,2262244.8772162867
4827,6.507434591185302e-8
2,1, 1, 1, 0, 5, 0.00,60.00,Thursday
4973,-1.0503725770915725
4826,2276043.2319377704
4827,8.574261300964281e-8
2,1, 1, 1, 0, 6, 0.00,60.00,Thursday
4973,-1.0494831301681003
4826,2295012.1763963915
4827,8.3082341006957e-8
2,1, 1, 1, 0, 7, 0.00,60.00,Thursday
4973,-1.0505600821547106
4826,2308385.608333198
4827,5.4637894209008667e-8
2,1, 1, 1, 0, 8, 0.00,60.00,Thursday
4973,-1.6664438508815219
4826,0.0
4827,0.0
2,1, 1, 1, 0, 9, 0.00,60.00,Thursday
4973,-2.051237137940343
4826,0.0
4827,0.0
2,1, 1, 1, 0,10, 0.00,60.00,Thursday
4973,-2.0895438115045477
4826,0.0
4827,0.0
2,1, 1, 1, 0,11, 0.00,60.00,Thursday
4973,-2.097712148960203
4826,0.0
4827,0.0
2,1, 1, 1, 0,12, 0.00,60.00,Thursday
4973,-2.095646926539785
4826,0.0
4827,0.0
2,1, 1, 1, 0,13, 0.00,60.00,Thursday
4973,-2.081306505072509
4826,0.0
4827,0.0
2,1, 1, 1, 0,14, 0.00,60.00,Thursday
4973,-2.048899861511032
4826,0.0
4827,0.0
2,1, 1, 1, 0,15, 0.00,60.00,Thursday
4973,-2.0060675131444438
4826,0.0
4827,0.0
2,1, 1, 1, 0,16, 0.00,60.00,Thursday
4973,-1.949368902902127
4826,0.0
4827,0.0
2,1, 1, 1, 0,17, 0.00,60.00,Thursday
4973,-1.8830060722332447
4826,0.0
4827,0.0
2,1, 1, 1, 0,18, 0.00,60.00,Thursday
4973,-1.8245686036038594
4826,0.0
4827,0.0
2,1, 1, 1, 0,19, 0.00,60.00,Thursday
4973,-1.7765290818925513
4826,0.0
4827,0.0
2,1, 1, 1, 0,20, 0.00,60.00,Thursday
4973,-1.7483310548203355
4826,0.0
4827,0.0
2,1, 1, 1, 0,21, 0.00,60.00,Thursday
4973,-1.7868669044111756
4826,0.0
4827,0.0
2,1, 1, 1, 0,22, 0.00,60.00,Thursday
4973,-1.2707758625696784
4826,2990352.064179682
4827,7.195694706751965e-8
2,1, 1, 1, 0,23, 0.00,60.00,Thursday
4973,-1.088611484018656
4826,2248679.505689773
4827,1.028297447192017e-7
2,1, 1, 1, 0,24, 0.00,60.00,Thursday
4973,-1.0837621424873155
4826,2143583.2846915165
4827,1.2073542166035623e-8
2,2, 1, 2, 0, 1, 0.00,60.00,Friday
4973,-1.080581695242762
4826,2331358.5071363106
4827,1.1836675639642636e-7
2,2, 1, 2, 0, 2, 0.00,60.00,Friday
4973,-1.078438271284984
4826,2324417.8996967656
4827,6.752998160663992e-8
2,2, 1, 2, 0, 3, 0.00,60.00,Friday
4973,-1.0766015733514294
4826,2323510.0087855288
4827,9.47466105571948e-8
2,2, 1, 2, 0, 4, 0.00,60.00,Friday
4973,-1.0726426003296755
4826,2315814.3009174915
4827,5.8628302213037389e-8
2,2, 1, 2, 0, 5, 0.00,60.00,Friday
4973,-1.0679694109635927
4826,2300993.715156953
4827,6.261871021706611e-8
2,2, 1, 2, 0, 6, 0.00,60.00,Friday
4973,-1.063202703912041
4826,2289328.3906369016
4827,7.755716069368646e-8
2,2, 1, 2, 0, 7, 0.00,60.00,Friday
4973,-1.0586298403259358
4826,2274099.417780014
4827,3.243485480197705e-8
2,2, 1, 2, 0, 8, 0.00,60.00,Friday
4973,-1.6360672863745139
4826,0.0
4827,0.0
2,2, 1, 2, 0, 9, 0.00,60.00,Friday
4973,-1.9748496529042106
4826,0.0
4827,0.0
2,2, 1, 2, 0,10, 0.00,60.00,Friday
4973,-1.956327978496667
4826,0.0
4827,0.0
2,2, 1, 2, 0,11, 0.00,60.00,Friday
4973,-1.941176888581542
4826,0.0
4827,0.0
2,2, 1, 2, 0,12, 0.00,60.00,Friday
4973,-1.9314599027412314
4826,0.0
4827,0.0
2,2, 1, 2, 0,13, 0.00,60.00,Friday
4973,-1.9200667082032706
4826,0.0
4827,0.0
2,2, 1, 2, 0,14, 0.00,60.00,Friday
4973,-1.9075535152757773
4826,0.0
4827,0.0
2,2, 1, 2, 0,15, 0.00,60.00,Friday
4973,-1.8837842284439932
4826,0.0
4827,0.0
2,2, 1, 2, 0,16, 0.00,60.00,Friday
4973,-1.850809915465062
4826,0.0
4827,0.0
2,2, 1, 2, 0,17, 0.00,60.00,Friday
4973,-1.829944801197392
4826,0.0
4827,0.0
2,2, 1, 2, 0,18, 0.00,60.00,Friday
4973,-1.851078017050572
4826,0.0
4827,0.0
2,2, 1, 2, 0,19, 0.00,60.00,Friday
4973,-1.890675318596941
4826,0.0
4827,0.0
2,2, 1, 2, 0,20, 0.00,60.00,Friday
4973,-1.9158444928599159
4826,0.0
4827,0.0
2,2, 1, 2, 0,21, 0.00,60.00,Friday
4973,-1.9413280354187755
4826,0.0
4827,0.0
2,2, 1, 2, 0,22, 0.00,60.00,Friday
4973,-1.3187704258199915
4826,3274964.6663604446
4827,7.164999260567129e-8
2,2, 1, 2, 0,23, 0.00,60.00,Friday
4973,-1.0973681292732139
4826,2284863.7311481807
4827,7.694325176998973e-8
2,2, 1, 2, 0,24, 0.00,60.00,Friday
4973,-1.0792596280674394
4826,2164476.7376826338
4827,6.139089236967266e-9
2,3, 1, 3, 0, 1, 0.00,60.00,Saturday
4973,-1.071053496776973
4826,2362589.821221916
4827,1.1014549272658769e-7
2,3, 1, 3, 0, 2, 0.00,60.00,Saturday
4973,-1.0677685189703384
4826,2390758.209646598
4827,8.108713700494263e-8
2,3, 1, 3, 0, 3, 0.00,60.00,Saturday
4973,-1.069106904009706
4826,2397909.7099616636
4827,2.7318947104504333e-8
2,3, 1, 3, 0, 4, 0.00,60.00,Saturday
4973,-1.0701877174520283
4826,2391143.4163406549
4827,9.679297363618389e-8
2,3, 1, 3, 0, 5, 0.00,60.00,Saturday
4973,-1.0698095824564516
4826,2375892.753774667
4827,1.0231815394945443e-9
2,3, 1, 3, 0, 6, 0.00,60.00,Saturday
4973,-1.0676854879903193
4826,2344796.4177366497
4827,4.297362465877086e-8
2,3, 1, 3, 0, 7, 0.00,60.00,Saturday
4973,-1.0638573569083084
4826,2296467.2815517007
4827,2.7625901566352696e-8
2,3, 1, 3, 0, 8, 0.00,60.00,Saturday
4973,-1.0580535741646134
4826,2243511.3426533557
4827,6.549385034304578e-8
2,3, 1, 3, 0, 9, 0.00,60.00,Saturday
4973,-1.0530456535069593
4826,2242958.4095618126
4827,6.660911822109483e-8
2,3, 1, 3, 0,10, 0.00,60.00,Saturday
4973,-1.0480873269229732
4826,2190385.610859085
4827,5.7400484365643936e-8
2,3, 1, 3, 0,11, 0.00,60.00,Saturday
4973,-1.0439751703866843
4826,2198243.2628165117
4827,8.656115824123845e-8
2,3, 1, 3, 0,12, 0.00,60.00,Saturday
4973,-1.0404967444413969
4826,2152589.5285547908
4827,6.957634468562901e-8
2,3, 1, 3, 0,13, 0.00,60.00,Saturday
4973,-1.0366142776284194
4826,2112388.409407231
4827,6.261871021706611e-8
2,3, 1, 3, 0,14, 0.00,60.00,Saturday
4973,-1.0325425185186546
4826,2075938.9200284118
4827,7.5203843152849e-8
2,3, 1, 3, 0,15, 0.00,60.00,Saturday
4973,-1.0274663461085214
4826,2006014.6766798353
4827,5.934452929068357e-8
2,3, 1, 3, 0,16, 0.00,60.00,Saturday
4973,-1.0210438519031036
4826,1987799.3009129586
4827,8.492406777804718e-9
2,3, 1, 3, 0,17, 0.00,60.00,Saturday
4973,-1.0159911957910877
4826,2016689.7226439114
4827,4.5224624045658859e-8
2,3, 1, 3, 0,18, 0.00,60.00,Saturday
4973,-1.0112201658495477
4826,1997024.6655423037
4827,4.901039574178867e-8
2,3, 1, 3, 0,19, 0.00,60.00,Saturday
4973,-1.004516431574063
4826,1962545.9067436835
4827,9.075620255316608e-8
2,3, 1, 3, 0,20, 0.00,60.00,Saturday
4973,-0.9971207795311556
4826,1820203.62283693
4827,6.755556114512729e-8
2,3, 1, 3, 0,21, 0.00,60.00,Saturday
4973,-0.9891377899625906
4826,1749436.591082517
4827,5.1159076974727216e-8
2,3, 1, 3, 0,22, 0.00,60.00,Saturday
4973,-0.9810101336445093
4826,1722313.159432548
4827,3.831814865407068e-8
2,3, 1, 3, 0,23, 0.00,60.00,Saturday
4973,-0.9744572459796455
4826,1708884.0992741765
4827,7.285052561201155e-8
2,3, 1, 3, 0,24, 0.00,60.00,Saturday
4973,-0.9681989205546533
4826,1641655.5506606047
4827,3.555555849743541e-8
2,4, 1, 4, 0, 1, 0.00,60.00,Sunday
4973,-0.9644342649285619
4826,1777317.1199370204
4827,6.078113240265204
2,4, 1, 4, 0, 2, 0.00,60.00,Sunday
4973,-0.9599401733724809
4826,1776639.5336427119
4827,7.203198038041592e-8
2,4, 1, 4, 0, 3, 0.00,60.00,Sunday
4973,-0.9566036700294984
4826,1756933.3812303148
4827,7.346443453570828e-8
2,4, 1, 4, 0, 4, 0.00,60.00,Sunday
4973,-0.953301791766206
4826,1743061.190534835
4827,3.632294465205632e-9
2,4, 1, 4, 0, 5, 0.00,60.00,Sunday
4973,-0.9497163523215635
4826,1733710.8627541564
4827,4.04156708100345e-8
2,4, 1, 4, 0, 6, 0.00,60.00,Sunday
4973,-0.9457208574317317
4826,1727615.4981508014
4827,4.957314558851067e-8
2,4, 1, 4, 0, 7, 0.00,60.00,Sunday
4973,-0.9421597587040358
4826,1720091.4591069485
4827,1.2073542166035623e-8
2,4, 1, 4, 0, 8, 0.00,60.00,Sunday
4973,-0.9394739843342573
4826,1709152.1270933792
4827,5.7574425227358009e-8
2,4, 1, 4, 0, 9, 0.00,60.00,Sunday
4973,-0.9389469296287668
4826,1748889.390513914
4827,2.609112925711088e-8
2,4, 1, 4, 0,10, 0.00,60.00,Sunday
4973,-0.9393291946660607
4826,1724316.7662491464
4827,5.300080374581739e-8
2,4, 1, 4, 0,11, 0.00,60.00,Sunday
4973,-0.9402237480787065
4826,1757397.3583719973
4827,1.028297447192017e-8
2,4, 1, 4, 0,12, 0.00,60.00,Sunday
4973,-0.9432860108215412
4826,1727961.2204624725
4827,2.8853719413746149e-8
2,4, 1, 4, 0,13, 0.00,60.00,Sunday
4973,-0.9451421907354891
4826,1691600.634358684
4827,4.0671466194908137e-8
2,4, 1, 4, 0,14, 0.00,60.00,Sunday
4973,-0.946050662746028
4826,1641081.5714374916
4827,3.888089850079268e-8
2,4, 1, 4, 0,15, 0.00,60.00,Sunday
4973,-0.9435290004049955
4826,1536511.8469665265
4827,5.1107917897752489e-8
2,4, 1, 4, 0,16, 0.00,60.00,Sunday
4973,-0.9358851395979466
4826,1484836.4595314135
4827,4.420144250616431e-8
2,4, 1, 4, 0,17, 0.00,60.00,Sunday
4973,-0.9277552830639969
4826,1518769.8699349175
4827,8.149640962074045e-8
2,4, 1, 4, 0,18, 0.00,60.00,Sunday
4973,-0.9231043394139968
4826,1528108.6964442109
4827,2.6551560949883425e-8
2,4, 1, 4, 0,19, 0.00,60.00,Sunday
4973,-0.9186247804328149
4826,1536672.3008823214
4827,7.832454684830737e-8
2,4, 1, 4, 0,20, 0.00,60.00,Sunday
4973,-0.9143627927236667
4826,1437472.4732161493
4827,1.2354917089396622e-8
2,4, 1, 4, 0,21, 0.00,60.00,Sunday
4973,-0.9118299795014457
4826,1402093.863390285
4827,2.332853910047561e-8
2,4, 1, 4, 0,22, 0.00,60.00,Sunday
4973,-0.9095282821177237
4826,1396878.2291453263
4827,4.282014742784668e-8
2,4, 1, 4, 0,23, 0.00,60.00,Sunday
4973,-0.9073837065934639
4826,1392628.0378578136
4827,6.251639206311666e-8
2,4, 1, 4, 0,24, 0.00,60.00,Sunday
4973,-0.9049596523870431
4826,1326356.8407573028
4827,5.949800652160775e-8
2,5, 1, 5, 0, 1, 0.00,60.00,Monday
4973,-0.9046921802833899
4826,1458097.2728895455
4827,0.543539341344399
2,5, 1, 5, 0, 2, 0.00,60.00,Monday
4973,-0.9037344482474663
4826,1453217.1842210286
4827,4.865228220296558e-8
2,5, 1, 5, 0, 3, 0.00,60.00,Monday
4973,-0.9036893220329787
4826,1467372.8264275466
4827,4.9317350203637037e-8
2,5, 1, 5, 0, 4, 0.00,60.00,Monday
4973,-0.9053816521302278
4826,1483955.0666118954
4827,5.673541636497248e-8
2,5, 1, 5, 0, 5, 0.00,60.00,Monday
4973,-0.9082715867701816
4826,1494856.9364523458
4827,4.8191850510193038e-8
2,5, 1, 5, 0, 6, 0.00,60.00,Monday
4973,-0.9107530665254813
4826,1506545.1473123525
4827,7.878497854107991e-9
2,5, 1, 5, 0, 7, 0.00,60.00,Monday
4973,-0.9130390517125302
4826,1518867.1632180354
4827,8.594724931754172e-9
2,5, 1, 5, 0, 8, 0.00,60.00,Monday
4973,-1.4136179356543568
4826,0.0
4827,0.0
2,5, 1, 5, 0, 9, 0.00,60.00,Monday
4973,-1.6860654406637972
4826,0.0
4827,0.0
2,5, 1, 5, 0,10, 0.00,60.00,Monday
4973,-1.7074416766251209
4826,0.0
4827,0.0
2,5, 1, 5, 0,11, 0.00,60.00,Monday
4973,-1.7196970518995763
4826,0.0
4827,0.0
2,5, 1, 5, 0,12, 0.00,60.00,Monday
4973,-1.729411761698033
4826,0.0
4827,0.0
2,5, 1, 5, 0,13, 0.00,60.00,Monday
4973,-1.7345143476996814
4826,0.0
4827,0.0
2,5, 1, 5, 0,14, 0.00,60.00,Monday
4973,-1.7326892300204664
4826,0.0
4827,0.0
2,5, 1, 5, 0,15, 0.00,60.00,Monday
4973,-1.728498951251825
4826,0.0
4827,0.0
2,5, 1, 5, 0,16, 0.00,60.00,Monday
4973,-1.7214192512939908
4826,0.0
4827,0.0
2,5, 1, 5, 0,17, 0.00,60.00,Monday
4973,-1.718502315874152
4826,0.0
4827,0.0
2,5, 1, 5, 0,18, 0.00,60.00,Monday
4973,-1.7171835822888114
4826,0.0
4827,0.0
2,5, 1, 5, 0,19, 0.00,60.00,Monday
4973,-1.7178008043857219
4826,0.0
4827,0.0
2,5, 1, 5, 0,20, 0.00,60.00,Monday
4973,-1.7100382077431305
4826,0.0
4827,0.0
2,5, 1, 5, 0,21, 0.00,60.00,Monday
4973,-1.7242136319193536
4826,0.0
4827,0.0
2,5, 1, 5, 0,22, 0.00,60.00,Monday
4973,-1.1992103021852514
4826,2605081.039078598
4827,5.9327476265025328e-8
2,5, 1, 5, 0,23, 0.00,60.00,Monday
4973,-1.0153872762380159
4826,1781025.3866321345
4827,3.1718627724330874e-9
2,5, 1, 5, 0,24, 0.00,60.00,Monday
4973,-1.0032970977489724
4826,1670614.1119099544
4827,2.2458834791905248e-8
2,6, 1, 6, 0, 1, 0.00,60.00,Tuesday
4973,-0.9940359218012553
4826,1856067.883103488
4827,5.417883927086884
2,6, 1, 6, 0, 2, 0.00,60.00,Tuesday
4973,-0.9866066812142116
4826,1854846.8896021317
4827,3.81646714231465e-8
2,6, 1, 6, 0, 3, 0.00,60.00,Tuesday
4973,-0.9788218039518385
4826,1812636.9428251005
4827,3.749960342247505e-8
2,6, 1, 6, 0, 4, 0.00,60.00,Tuesday
4973,-0.9712376820429495
4826,1782130.3577695885
4827,2.9825741876265968e-8
2,6, 1, 6, 0, 5, 0.00,60.00,Tuesday
4973,-0.9641656003785596
4826,1767721.2855334108
4827,4.133653419557959e-8
2,6, 1, 6, 0, 6, 0.00,60.00,Tuesday
4973,-0.9577667440568558
4826,1751190.3226696086
4827,3.448121788096614e-8
2,6, 1, 6, 0, 7, 0.00,60.00,Tuesday
4973,-0.9523423451110958
4826,1736152.6040683427
4827,7.950120561872609e-8
2,6, 1, 6, 0, 8, 0.00,60.00,Tuesday
4973,-1.445682434218863
4826,0.0
4827,0.0
2,6, 1, 6, 0, 9, 0.00,60.00,Tuesday
4973,-1.742600660287707
4826,0.0
4827,0.0
2,6, 1, 6, 0,10, 0.00,60.00,Tuesday
4973,-1.7422000842994264
4826,0.0
4827,0.0
2,6, 1, 6, 0,11, 0.00,60.00,Tuesday
4973,-1.730296451064846
4826,0.0
4827,0.0
2,6, 1, 6, 0,12, 0.00,60.00,Tuesday
4973,-1.7151666754499589
4826,0.0
4827,0.0
2,6, 1, 6, 0,13, 0.00,60.00,Tuesday
4973,-1.692642827360062
4826,0.0
4827,0.0
2,6, 1, 6, 0,14, 0.00,60.00,Tuesday
4973,-1.6595080657801865
4826,0.0
4827,0.0
2,6, 1, 6, 0,15, 0.00,60.00,Tuesday
4973,-1.6188829410337507
4826,0.0
4827,0.0
2,6, 1, 6, 0,16, 0.00,60.00,Tuesday
4973,-1.565266570569082
4826,0.0
4827,0.0
2,6, 1, 6, 0,17, 0.00,60.00,Tuesday
4973,-1.5297571937703337
4826,0.0
4827,0.0
2,6, 1, 6, 0,18, 0.00,60.00,Tuesday
4973,-1.5425128201401404
4826,0.0
4827,0.0
2,6, 1, 6, 0,19, 0.00,60.00,Tuesday
4973,-1.573581797324049
4826,0.0
4827,0.0
2,6, 1, 6, 0,20, 0.00,60.00,Tuesday
4973,-1.5917749583075312
4826,0.0
4827,0.0
2,6, 1, 6, 0,21, 0.00,60.00,Tuesday
4973,-1.6215081480763825
4826,0.0
4827,0.0
2,6, 1, 6, 0,22, 0.00,60.00,Tuesday
4973,-1.1499195754697463
4826,2406350.322905845
4827,9.589598448656034e-8
2,6, 1, 6, 0,23, 0.00,60.00,Tuesday
4973,-0.9848872218432313
4826,1706174.7332601306
4827,6.282334652496502e-8
2,6, 1, 6, 0,24, 0.00,60.00,Tuesday
4973,-0.9742726381986059
4826,1607253.0429394029
4827,4.338289727456868e-8
2,7, 1, 7, 0, 1, 0.00,60.00,Wednesday
4973,-0.9692142283312126
4826,1801934.0875258533
4827,6.727589152433211e-8
2,7, 1, 7, 0, 2, 0.00,60.00,Wednesday
4973,-0.9661130867894012
4826,1816351.700166197
4827,1.5143086784519256e-8
2,7, 1, 7, 0, 3, 0.00,60.00,Wednesday
4973,-0.9655905536830508
4826,1844307.069455761
4827,6.681375452899374e-8
2,7, 1, 7, 0, 4, 0.00,60.00,Wednesday
4973,-0.9668020531761845
4826,1888456.85941859
4827,3.765308065339923e-8
2,7, 1, 7, 0, 5, 0.00,60.00,Wednesday
4973,-0.9698761069245809
4826,1947023.1273303142
4827,4.645244189305231e-8
2,7, 1, 7, 0, 6, 0.00,60.00,Wednesday
4973,-0.9745738241477474
4826,2002458.8146096545
4827,2.0054358174093069e-8
2,7, 1, 7, 0, 7, 0.00,60.00,Wednesday
4973,-0.9795313771764093
4826,2048016.4947090704
4827,3.4992808650713417e-8
2,7, 1, 7, 0, 8, 0.00,60.00,Wednesday
4973,-1.6107557027564217
4826,0.0
4827,0.0
2,7, 1, 7, 0, 9, 0.00,60.00,Wednesday
4973,-1.9487674835660054
4826,0.0
4827,0.0
2,7, 1, 7, 0,10, 0.00,60.00,Wednesday
4973,-1.9760257793820387
4826,0.0
4827,0.0
2,7, 1, 7, 0,11, 0.00,60.00,Wednesday
4973,-1.9810308272972575
4826,0.0
4827,0.0
2,7, 1, 7, 0,12, 0.00,60.00,Wednesday
4973,-1.9634648507242126
4826,0.0
4827,0.0
2,7, 1, 7, 0,13, 0.00,60.00,Wednesday
4973,-1.9195626209526929
4826,0.0
4827,0.0
2,7, 1, 7, 0,14, 0.00,60.00,Wednesday
4973,-1.8468905225966748
4826,0.0
4827,0.0
2,7, 1, 7, 0,15, 0.00,60.00,Wednesday
4973,-1.7498297591813557
4826,0.0
4827,0.0
2,7, 1, 7, 0,16, 0.00,60.00,Wednesday
4973,-1.6328452820263098
4826,0.0
4827,0.0
2,7, 1, 7, 0,17, 0.00,60.00,Wednesday
4973,-1.5503757489572979
4826,0.0
4827,0.0
2,7, 1, 7, 0,18, 0.00,60.00,Wednesday
4973,-1.5640051445506374
4826,0.0
4827,0.0
2,7, 1, 7, 0,19, 0.00,60.00,Wednesday
4973,-1.5930179441045023
4826,0.0
4827,0.0
2,7, 1, 7, 0,20, 0.00,60.00,Wednesday
4973,-1.6107064574297785
4826,0.0
4827,0.0
2,7, 1, 7, 0,21, 0.00,60.00,Wednesday
4973,-1.6327908838078125
4826,0.0
4827,0.0
2,7, 1, 7, 0,22, 0.00,60.00,Wednesday
4973,-1.1774548875808982
4826,2421604.2969801
4827,4.559296939987689e-8
2,7, 1, 7, 0,23, 0.00,60.00,Wednesday
4973,-1.02017680326372
4826,1715320.4764686898
4827,2.092406248266343e-8
2,7, 1, 7, 0,24, 0.00,60.00,Wednesday
4973,-1.008673793731042
4826,1619434.760797495
4827,2.4147084332071246e-8
2,8, 1, 8, 0, 1, 0.00,60.00,Thursday
4973,-1.0022374603671068
4826,1814687.3482507694
4827,3.9320135718818556e-8
2,8, 1, 8, 0, 2, 0.00,60.00,Thursday
4973,-0.9966541794335859
4826,1818670.0599197765
4827,4.8908077587839219e-8
2,8, 1, 8, 0, 3, 0.00,60.00,Thursday
4973,-0.9916539135441542
4826,1836413.3773636027
4827,8.200800039048772e-8
2,8, 1, 8, 0, 4, 0.00,60.00,Thursday
4973,-0.9874166793668961
4826,1851948.1695657257
4827,5.2796167437918487e-8
2,8, 1, 8, 0, 5, 0.00,60.00,Thursday
4973,-0.9835997252382881
4826,1856464.381981427
4827,1.2083773981430569e-7
2,8, 1, 8, 0, 6, 0.00,60.00,Thursday
4973,-0.9797238060131484
4826,1860096.9590147888
4827,2.4863311409717427e-8
2,8, 1, 8, 0, 7, 0.00,60.00,Thursday
4973,-0.9768000189807918
4826,1854712.6779406928
4827,6.200480129336938e-8
2,8, 1, 8, 0, 8, 0.00,60.00,Thursday
4973,-1.4904209676196559
4826,0.0
4827,0.0
2,8, 1, 8, 0, 9, 0.00,60.00,Thursday
4973,-1.7982472077100092
4826,0.0
4827,0.0
2,8, 1, 8, 0,10, 0.00,60.00,Thursday
4973,-1.7965429235344124
4826,0.0
4827,0.0
2,8, 1, 8, 0,11, 0.00,60.00,Thursday
4973,-1.7892630755058797
4826,0.0
4827,0.0
2,8, 1, 8, 0,12, 0.00,60.00,Thursday
4973,-1.7705673960322202
4826,0.0
4827,0.0
2,8, 1, 8, 0,13, 0.00,60.00,Thursday
4973,-1.750149471779199
4826,0.0
4827,0.0
2,8, 1, 8, 0,14, 0.00,60.00,Thursday
4973,-1.7281012806870944
4826,0.0
4827,0.0
2,8, 1, 8, 0,15, 0.00,60.00,Thursday
4973,-1.706076826172619
4826,0.0
4827,0.0
2,8, 1, 8, 0,16, 0.00,60.00,Thursday
4973,-1.687024052589282
4826,0.0
4827,0.0
2,8, 1, 8, 0,17, 0.00,60.00,Thursday
4973,-1.6705029790206785
4826,0.0
4827,0.0
2,8, 1, 8, 0,18, 0.00,60.00,Thursday
4973,-1.6693402395986588
4826,0.0
4827,0.0
2,8, 1, 8, 0,19, 0.00,60.00,Thursday
4973,-1.6840693162232186
4826,0.0
4827,0.0
2,8, 1, 8, 0,20, 0.00,60.00,Thursday
4973,-1.6964381928244788
4826,0.0
4827,0.0
2,8, 1, 8, 0,21, 0.00,60.00,Thursday
4973,-1.708280945023287
4826,0.0
4827,0.0
2,8, 1, 8, 0,22, 0.00,60.00,Thursday
4973,-1.1976907649468334
4826,2524915.0694971119
4827,6.851905709481798e-9
2,8, 1, 8, 0,23, 0.00,60.00,Thursday
4973,-1.0195259997301696
4826,1759461.4946325939
4827,3.785771696129814e-9
2,8, 1, 8, 0,24, 0.00,60.00,Thursday
4973,-1.003306300663972
4826,1661622.11831774
4827,1.8417267710901798e-8
2,9, 1, 9, 0, 1, 0.00,60.00,Friday
4973,-0.995328946516921
4826,1869205.9470089796
4827,5.98322458245093e-8
2,9, 1, 9, 0, 2, 0.00,60.00,Friday
4973,-0.9913955469519653
4826,1890043.1018882548
4827,8.589609024056699e-8
2,9, 1, 9, 0, 3, 0.00,60.00,Friday
4973,-0.9881673139224831
4826,1890693.704419583
4827,4.5633896661456677e-8
2,9, 1, 9, 0, 4, 0.00,60.00,Friday
4973,-0.984299573874221
4826,1875840.5605713167
4827,2.5272584025515245e-8
2,9, 1, 9, 0, 5, 0.00,60.00,Friday
4973,-0.9796739046459172
4826,1859966.5061260833
4827,4.501998773775995e-8
2,9, 1, 9, 0, 6, 0.00,60.00,Friday
4973,-0.9749746365116666
4826,1846291.7260027747
4827,7.668745638511609e-8
2,9, 1, 9, 0, 7, 0.00,60.00,Friday
4973,-0.9713484669059889
4826,1834138.4633596785
4827,3.923901203961577e-8
2,9, 1, 9, 0, 8, 0.00,60.00,Friday
4973,-1.4760495571697863
4826,0.0
4827,0.0
2,9, 1, 9, 0, 9, 0.00,60.00,Friday
4973,-1.7880633336124934
4826,0.0
4827,0.0
2,9, 1, 9, 0,10, 0.00,60.00,Friday
4973,-1.802837422404301
4826,0.0
4827,0.0
2,9, 1, 9, 0,11, 0.00,60.00,Friday
4973,-1.8063126327958135
4826,0.0
4827,0.0
2,9, 1, 9, 0,12, 0.00,60.00,Friday
4973,-1.804912275941449
4826,0.0
4827,0.0
2,9, 1, 9, 0,13, 0.00,60.00,Friday
4973,-1.8027506041672453
4826,0.0
4827,0.0
2,9, 1, 9, 0,14, 0.00,60.00,Friday
4973,-1.7956225094669623
4826,0.0
4827,0.0
2,9, 1, 9, 0,15, 0.00,60.00,Friday
4973,-1.7923190908243534
4826,0.0
4827,0.0
2,9, 1, 9, 0,16, 0.00,60.00,Friday
4973,-1.7885838570144415
4826,0.0
4827,0.0
2,9, 1, 9, 0,17, 0.00,60.00,Friday
4973,-1.7911096388551445
4826,0.0
4827,0.0
2,9, 1, 9, 0,18, 0.00,60.00,Friday
4973,-1.7995568916674874
4826,0.0
4827,0.0
2,9, 1, 9, 0,19, 0.00,60.00,Friday
4973,-1.8054531571252955
4826,0.0
4827,0.0
2,9, 1, 9, 0,20, 0.00,60.00,Friday
4973,-1.7954116294469418
4826,0.0
4827,0.0
2,9, 1, 9, 0,21, 0.00,60.00,Friday
4973,-1.7931554900254463
4826,0.0
4827,0.0
2,9, 1, 9, 0,22, 0.00,60.00,Friday
4973,-1.2333390995305207
4826,2777341.2984303885
4827,1.7179218048113399e-8
2,9, 1, 9, 0,23, 0.00,60.00,Friday
4973,-1.0426761735291069
4826,1909047.0324433319
4827,6.159552867757157e-8
2,9, 1, 9, 0,24, 0.00,60.00,Friday
4973,-1.0283395088844683
4826,1767041.8636863055
4827,3.5913672036258507e-8
2,10, 1,10, 0, 1, 0.00,60.00,Saturday
4973,-1.019767960470914
4826,1920905.420045271
4827,2.079123018760356
2,10, 1,10, 0, 2, 0.00,60.00,Saturday
4973,-1.0130559947734979
4826,1894037.5201072375
4827,8.697043085703626e-8
2,10, 1,10, 0, 3, 0.00,60.00,Saturday
4973,-1.0072397862259793
4826,1857790.1974658028
4827,9.77649960987037e-8
2,10, 1,10, 0, 4, 0.00,60.00,Saturday
4973,-1.0013946835953414
4826,1829715.0621445389
4827,4.3024783735745589e-8
2,10, 1,10, 0, 5, 0.00,60.00,Saturday
4973,-0.9954634917552111
4826,1811941.547228349
4827,9.234213393938262e-8
2,10, 1,10, 0, 6, 0.00,60.00,Saturday
4973,-0.9898787429376527
4826,1800954.79729559
4827,2.609112925711088e-8
2,10, 1,10, 0, 7, 0.00,60.00,Saturday
4973,-0.9852621010107905
4826,1789665.927606231
4827,1.764988155628089e-8
2,10, 1,10, 0, 8, 0.00,60.00,Saturday
4973,-0.9815545094582778
4826,1772124.3639130966
4827,3.2141542760655287e-8
2,10, 1,10, 0, 9, 0.00,60.00,Saturday
4973,-0.9789209682782974
4826,1822017.6968520499
4827,2.701199264265597e-8
2,10, 1,10, 0,10, 0.00,60.00,Saturday
4973,-0.9778714278363552
4826,1803549.5629707534
4827,2.5477220333414153e-8
2,10, 1,10, 0,11, 0.00,60.00,Saturday
4973,-0.9777745440862282
4826,1823615.2792885306
4827,1.248281478183344e-8
2,10, 1,10, 0,12, 0.00,60.00,Saturday
4973,-0.9788489940541826
4826,1775644.4719858499
4827,2.1793766791233794e-8
2,10, 1,10, 0,13, 0.00,60.00,Saturday
4973,-0.9781712963007085
4826,1710103.9570396734
4827,5.924221113673411e-8
2,10, 1,10, 0,14, 0.00,60.00,Saturday
4973,-0.9752358305897307
4826,1629745.8845634897
4827,5.1875304052373397e-8
2,10, 1,10, 0,15, 0.00,60.00,Saturday
4973,-0.9669967893151796
4826,1476089.3144063587
4827,2.9314151106518694e-8
2,10, 1,10, 0,16, 0.00,60.00,Saturday
4973,-0.951451030717632
4826,1384407.8285052076
4827,2.0821744328713977e-8
2,10, 1,10, 0,17, 0.00,60.00,Saturday
4973,-0.9351785797974666
4826,1410494.4483819
4827,9.259792932425626e-9
2,10, 1,10, 0,18, 0.00,60.00,Saturday
4973,-0.9261649010418976
4826,1428453.8477577817
4827,3.00815372611396e-8
2,10, 1,10, 0,19, 0.00,60.00,Saturday
4973,-0.92199337267168
4826,1455083.2325471719
4827,4.5071146814734678e-8
2,10, 1,10, 0,20, 0.00,60.00,Saturday
4973,-0.9198752389538885
4826,1363789.755753762
4827,5.108233835926512e-8
2,10, 1,10, 0,21, 0.00,60.00,Saturday
4973,-0.918174253597716
4826,1337835.5366013598
4827,2.2714630176778884e-8
2,10, 1,10, 0,22, 0.00,60.00,Saturday
4973,-0.9130874239968693
4826,1323252.2228074093
4827,3.8829739423817958e-8
2,10, 1,10, 0,23, 0.00,60.00,Saturday
4973,-0.9057793493856283
4826,1319984.7379100775
4827,4.7629100663471038e-8
2,10, 1,10, 0,24, 0.00,60.00,Saturday
4973,-0.8988661572341626
4826,1294388.22394463
4827,6.793925422243774e-8
2,11, 1,11, 0, 1, 0.00,60.00,Sunday
4973,-0.8986880016124457
4826,1489431.2851030916
4827,7.27345650375355e-8
2,11, 1,11, 0, 2, 0.00,60.00,Sunday
4973,-0.9028581798616764
4826,1549432.8445024365
4827,3.857394403894432e-8
2,11, 1,11, 0, 3, 0.00,60.00,Sunday
4973,-0.9086426627773729
4826,1579917.555427243
4827,2.7063151719630697e-8
2,11, 1,11, 0, 4, 0.00,60.00,Sunday
4973,-0.91160186127545
4826,1589122.1852282659
4827,1.1459633242338896e-8
2,11, 1,11, 0, 5, 0.00,60.00,Sunday
4973,-0.9123219535811155
4826,1600980.2961764655
4827,4.1234216041630137e-8
2,11, 1,11, 0, 6, 0.00,60.00,Sunday
4973,-0.9137971313745944
4826,1617453.9740106106
4827,4.588969204633031e-8
2,11, 1,11, 0, 7, 0.00,60.00,Sunday
4973,-0.915974727386885
4826,1629852.0231968577
4827,4.90615548187634e-8
2,11, 1,11, 0, 8, 0.00,60.00,Sunday
4973,-0.9168581826021478
4826,1610860.1687949992
4827,6.828202003816841e-8
2,11, 1,11, 0, 9, 0.00,60.00,Sunday
4973,-0.9156306436535794
4826,1591490.1880983927
4827,9.72022462519817e-9
2,11, 1,11, 0,10, 0.00,60.00,Sunday
4973,-0.9109716156822827
4826,1517983.3017109442
4827,3.4583536034915599e-8
2,11, 1,11, 0,11, 0.00,60.00,Sunday
4973,-0.9045870363429778
4826,1520693.7524295855
4827,5.4433257901109758e-8
2,11, 1,11, 0,12, 0.00,60.00,Sunday
4973,-0.8993249690451772
4826,1482828.2940055612
4827,4.9470827434561218e-8
2,11, 1,11, 0,13, 0.00,60.00,Sunday
4973,-0.89549391150051
4826,1451561.7729563222
4827,5.990727913740557e-8
2,11, 1,11, 0,14, 0.00,60.00,Sunday
4973,-0.8921658035189632
4826,1430552.1504266433
4827,3.033733264601324e-8
2,11, 1,11, 0,15, 0.00,60.00,Sunday
4973,-0.8890214485759111
4826,1341473.76106119
4827,4.45595560449874e-8
2,11, 1,11, 0,16, 0.00,60.00,Sunday
4973,-0.8852124941477695
4826,1311135.5874157886
4827,4.3945647121290679e-8
2,11, 1,11, 0,17, 0.00,60.00,Sunday
4973,-0.8831837377763054
4826,1349798.873789924
4827,5.494484867085703e-8
2,11, 1,11, 0,18, 0.00,60.00,Sunday
4973,-0.8822085312569423
4826,1336976.951765386
4827,1.4068746168049984e-8
2,11, 1,11, 0,19, 0.00,60.00,Sunday
4973,-0.8793916763424179
4826,1311839.9833527203
4827,4.1745806811377409e-8
2,11, 1,11, 0,20, 0.00,60.00,Sunday
4973,-0.8765811243188229
4826,1170539.896310546
4827,2.25611529458547e-8
2,11, 1,11, 0,21, 0.00,60.00,Sunday
4973,-0.8735830430640317
4826,1112167.619545323
4827,2.1077539713587613e-8
2,11, 1,11, 0,22, 0.00,60.00,Sunday
4973,-0.8706745138165384
4826,1094208.9420991857
4827,2.0310153558966705e-8
2,11, 1,11, 0,23, 0.00,60.00,Sunday
4973,-0.8695437819558834
4826,1081456.844511083
4827,2.793285602820106e-8
2,11, 1,11, 0,24, 0.00,60.00,Sunday
4973,-0.8686721677296223
4826,1019360.2002358956
4827,2.9774582799291239e-8
2,12, 1,12, 0, 1, 0.00,60.00,Monday
4973,-0.869581253113622
4826,1161379.1670036102
4827,1.55503292782149e-8
2,12, 1,12, 0, 2, 0.00,60.00,Monday
4973,-0.8706000031212396
4826,1171776.6396890716
4827,2.1435653252410704e-8
2,12, 1,12, 0, 3, 0.00,60.00,Monday
4973,-0.8720828116167831
4826,1200872.0653890549
4827,3.340687726449687e-8
2,12, 1,12, 0, 4, 0.00,60.00,Monday
4973,-0.8731613395450831
4826,1227705.1405391473
4827,2.077058525173925e-8
2,12, 1,12, 0, 5, 0.00,60.00,Monday
4973,-0.8727096401949989
4826,1252157.5843204717
4827,5.9037574828835207e-8
2,12, 1,12, 0, 6, 0.00,60.00,Monday
4973,-0.8708016443170348
4826,1275193.9172766805
4827,8.185452315956354e-8
2,12, 1,12, 0, 7, 0.00,60.00,Monday
4973,-0.8678176192354485
4826,1290654.6546373135
4827,3.3867308957269418e-8
2,12, 1,12, 0, 8, 0.00,60.00,Monday
4973,-1.3094937373763008
4826,0.0
4827,0.0
2,12, 1,12, 0, 9, 0.00,60.00,Monday
4973,-1.546094307557782
4826,0.0
4827,0.0
2,12, 1,12, 0,10, 0.00,60.00,Monday
4973,-1.5501952861215565
4826,0.0
4827,0.0
2,12, 1,12, 0,11, 0.00,60.00,Monday
4973,-1.5530683754534865
4826,0.0
4827,0.0
2,12, 1,12, 0,12, 0.00,60.00,Monday
4973,-1.5605275218802826
4826,0.0
4827,0.0
2,12, 1,12, 0,13, 0.00,60.00,Monday
4973,-1.5650146480270089
4826,0.0
4827,0.0
2,12, 1,12, 0,14, 0.00,60.00,Monday
4973,-1.572356460059307
4826,0.0
4827,0.0
2,12, 1,12, 0,15, 0.00,60.00,Monday
4973,-1.572400998803109
4826,0.0
4827,0.0
2,12, 1,12, 0,16, 0.00,60.00,Monday
4973,-1.5650684323223592
4826,0.0
4827,0.0
2,12, 1,12, 0,17, 0.00,60.00,Monday
4973,-1.5548516103658459
4826,0.0
4827,0.0
2,12, 1,12, 0,18, 0.00,60.00,Monday
4973,-1.545647398984754
4826,0.0
4827,0.0
2,12, 1,12, 0,19, 0.00,60.00,Monday
4973,-1.5439900184602545
4826,0.0
4827,0.0
2,12, 1,12, 0,20, 0.00,60.00,Monday
4973,-1.5381226965432049
4826,0.0
4827,0.0
2,12, 1,12, 0,21, 0.00,60.00,Monday
4973,-1.541380681564684
4826,0.0
4827,0.0
2,12, 1,12, 0,22, 0.00,60.00,Monday
4973,-1.0915484705914969
4826,2057792.947335222
4827,6.660911822109483e-8
2,12, 1,12, 0,23, 0.00,60.00,Monday
4973,-0.9392258484472442
4826,1376108.1778468062
4827,3.6271785575081597e-8
2,12, 1,12, 0,24, 0.00,60.00,Monday
4973,-0.9280043271472377
4826,1263041.564604752
4827,3.4992808650713417e-8
2,13, 1,13, 0, 1, 0.00,60.00,Tuesday
4973,-0.9210803958903324
4826,1438474.9521206339
4827,4.440251935286353
2,13, 1,13, 0, 2, 0.00,60.00,Tuesday
4973,-0.9152803665781342
4826,1428286.3520527106
4827,6.067466529202648e-8
2,13, 1,13, 0, 3, 0.00,60.00,Tuesday
4973,-0.9099722059074008
4826,1419212.1374964747
4827,1.836610863392707e-8
2,13, 1,13, 0, 4, 0.00,60.00,Tuesday
4973,-0.9053055387380419
4826,1411293.923313575
4827,7.254357115016319e-8
2,13, 1,13, 0, 5, 0.00,60.00,Tuesday
4973,-0.9009466150716265
4826,1408990.771453471
4827,3.76019215764245e-8
2,13, 1,13, 0, 6, 0.00,60.00,Tuesday
4973,-0.8967090141511055
4826,1410784.728200473
4827,1.8417267710901798e-8
2,13, 1,13, 0, 7, 0.00,60.00,Tuesday
4973,-0.8935306057411278
4826,1409484.8093290935