Program Version,EnergyPlus, Version 8.7.0-78a111df4a, YMD=2019.05.28 05:48
1,5,Environment Title[],Latitude[deg],Longitude[deg],Time Zone[],Elevation[m]
2,6,Day of Simulation[],Month[],Day of Month[],DST Indicator[1=yes 0=no],Hour[],StartMinute[],EndMinute[],DayType
3,3,Cumulative Day of Simulation[],Month[],Day of Month[],DST Indicator[1=yes 0=no],DayType  ! When Daily Report Variables Requested
4,2,Cumulative Days of Simulation[],Month[]  ! When Monthly Report Variables Requested
5,1,Cumulative Days of Simulation[] ! When Run Period Report Variables Requested
4826,1,BEDROOM2.2,Zone Ideal Loads Zone Total Heating Energy [J] !Hourly
4827,1,BEDROOM2.2,Zone Ideal Loads Zone Total Cooling Energy [J] !Hourly
4973,1,BEDROOM2.2,Zone Thermal Comfort Fanger Model PMV [] !Hourly
End of Data Dictionary
1,RUNPERIOD,  29.58, 106.47,   8.00, 259.10
2,1, 1, 1, 0, 1, 0.00,60.00,Thursday
4973,-1.1401730246964739
4826,2707137.7582195529
4827,1.0177152696335477e-7
2,1, 1, 1, 0, 2, 0.00,60.00,Thursday
4973,-1.1311131463231977
4826,2704871.589467051
4827,1.52658685692586e-7
2,1, 1, 1, 0, 3, 0.00,60.00,Thursday
4973,-1.1223408593198577
4826,2634026.3885213939
4827,6.916707206983119e-8
2,1, 1, 1, 0, 4, 0.00,60.00,Thursday
4973,-1.115319194864463
4826,2598589.287858626
4827,8.768665793468245e-8
2,1, 1, 1, 0, 5, 0.00,60.00,Thursday
4973,-1.111478371111082
4826,2612532.999198667
4827,8.154756869771518e-8
2,1, 1, 1, 0, 6, 0.00,60.00,Thursday
4973,-1.1109159831266189
4826,2632897.848943804
4827,1.400735527568031e-7
2,1, 1, 1, 0, 7, 0.00,60.00,Thursday
4973,-1.1124724857897497
4826,2648530.762735878
4827,1.239072844327893e-7
2,1, 1, 1, 0, 8, 0.00,60.00,Thursday
4973,-1.7611374769328295
4826,0.0
4827,0.0
2,1, 1, 1, 0, 9, 0.00,60.00,Thursday
4973,-2.180586116762072
4826,0.0
4827,0.0
2,1, 1, 1, 0,10, 0.00,60.00,Thursday
4973,-2.222153329445992
4826,0.0
4827,0.0
2,1, 1, 1, 0,11, 0.00,60.00,Thursday
4973,-2.23465436665723
4826,0.0
4827,0.0
2,1, 1, 1, 0,12, 0.00,60.00,Thursday
4973,-2.2368210211939729
4826,0.0
4827,0.0
2,1, 1, 1, 0,13, 0.00,60.00,Thursday
4973,-2.2262046479180137
4826,0.0
4827,0.0
2,1, 1, 1, 0,14, 0.00,60.00,Thursday
4973,-2.1966352844905727
4826,0.0
4827,0.0
2,1, 1, 1, 0,15, 0.00,60.00,Thursday
4973,-2.1552853743636457
4826,0.0
4827,0.0
2,1, 1, 1, 0,16, 0.00,60.00,Thursday
4973,-2.0976899611592616
4826,0.0
4827,0.0
2,1, 1, 1, 0,17, 0.00,60.00,Thursday
4973,-2.0278915744228267
4826,0.0
4827,0.0
2,1, 1, 1, 0,18, 0.00,60.00,Thursday
4973,-1.9667814021479342
4826,0.0
4827,0.0
2,1, 1, 1, 0,19, 0.00,60.00,Thursday
4973,-1.915585698307788
4826,0.0
4827,0.0
2,1, 1, 1, 0,20, 0.00,60.00,Thursday
4973,-1.8841297042160644
4826,0.0
4827,0.0
2,1, 1, 1, 0,21, 0.00,60.00,Thursday
4973,-1.9185991995359569
4826,0.0
4827,0.0
2,1, 1, 1, 0,22, 0.00,60.00,Thursday
4973,-1.355168992456188
4826,3315648.4226485916
4827,1.2107648217352108e-7
2,1, 1, 1, 0,23, 0.00,60.00,Thursday
4973,-1.1560065983955977
4826,2629817.818807155
4827,1.759872247930616e-8
2,1, 1, 1, 0,24, 0.00,60.00,Thursday
4973,-1.1471594280096742
4826,2503573.266721828
4827,5.341007636161521e-8
2,2, 1, 2, 0, 1, 0.00,60.00,Friday
4973,-1.1421929512909679
4826,2678238.8349025628
4827,8.625389372437811e-8
2,2, 1, 2, 0, 2, 0.00,60.00,Friday
4973,-1.1384299761088244
4826,2663075.828676847
4827,8.799361239653081e-8
2,2, 1, 2, 0, 3, 0.00,60.00,Friday
4973,-1.136006775068928
4826,2657112.6096812395
4827,6.57905729894992e-8
2,2, 1, 2, 0, 4, 0.00,60.00,Friday
4973,-1.1320984251699167
4826,2646835.4085064975
4827,8.584493116359227e-8
2,2, 1, 2, 0, 5, 0.00,60.00,Friday
4973,-1.1276921663808733
4826,2631710.24845615
4827,5.5149484978755939e-8
2,2, 1, 2, 0, 6, 0.00,60.00,Friday
4973,-1.1234289905292699
4826,2621431.161222892
4827,7.991047823452391e-8
2,2, 1, 2, 0, 7, 0.00,60.00,Friday
4973,-1.1195195319784195
4826,2608754.3796280284
4827,1.9542767404345797e-8
2,2, 1, 2, 0, 8, 0.00,60.00,Friday
4973,-1.7290098357081996
4826,0.0
4827,0.0
2,2, 1, 2, 0, 9, 0.00,60.00,Friday
4973,-2.1027112504139886
4826,0.0
4827,0.0
2,2, 1, 2, 0,10, 0.00,60.00,Friday
4973,-2.089280137786901
4826,0.0
4827,0.0
2,2, 1, 2, 0,11, 0.00,60.00,Friday
4973,-2.0784369324375668
4826,0.0
4827,0.0
2,2, 1, 2, 0,12, 0.00,60.00,Friday
4973,-2.0724131104240479
4826,0.0
4827,0.0
2,2, 1, 2, 0,13, 0.00,60.00,Friday
4973,-2.0638691911247797
4826,0.0
4827,0.0
2,2, 1, 2, 0,14, 0.00,60.00,Friday
4973,-2.0528435668258737
4826,0.0
4827,0.0
2,2, 1, 2, 0,15, 0.00,60.00,Friday
4973,-2.027694442373893
4826,0.0
4827,0.0
2,2, 1, 2, 0,16, 0.00,60.00,Friday
4973,-1.9914900488347465
4826,0.0
4827,0.0
2,2, 1, 2, 0,17, 0.00,60.00,Friday
4973,-1.967454203753121
4826,0.0
4827,0.0
2,2, 1, 2, 0,18, 0.00,60.00,Friday
4973,-1.9863396119980737
4826,0.0
4827,0.0
2,2, 1, 2, 0,19, 0.00,60.00,Friday
4973,-2.024696743810209
4826,0.0
4827,0.0
2,2, 1, 2, 0,20, 0.00,60.00,Friday
4973,-2.0456911001319284
4826,0.0
4827,0.0
2,2, 1, 2, 0,21, 0.00,60.00,Friday
4973,-2.0686153219224248
4826,0.0
4827,0.0
2,2, 1, 2, 0,22, 0.00,60.00,Friday
4973,-1.3974172286537657
4826,3673261.0857954367
4827,1.3866156223230065e-7
2,2, 1, 2, 0,23, 0.00,60.00,Friday
4973,-1.158153648145285
4826,2629392.5755524428
4827,5.197762220632285e-8
2,2, 1, 2, 0,24, 0.00,60.00,Friday
4973,-1.1389522465041798
4826,2498545.030889711
4827,6.59952092973981e-8
2,3, 1, 3, 0, 1, 0.00,60.00,Saturday
4973,-1.1302563048643087
4826,2692435.510573021
4827,1.0969281240911436e-7
2,3, 1, 3, 0, 2, 0.00,60.00,Saturday
4973,-1.1267733822792266
4826,2718902.6782835058
4827,9.30583610170288e-8
2,3, 1, 3, 0, 3, 0.00,60.00,Saturday
4973,-1.128143574643674
4826,2726314.096532798
4827,6.538130037370138e-8
2,3, 1, 3, 0, 4, 0.00,60.00,Saturday
4973,-1.1296081878442748
4826,2721326.9396556469
4827,1.1295924196019769e-7
2,3, 1, 3, 0, 5, 0.00,60.00,Saturday
4973,-1.1299176603603883
4826,2708854.5584001836
4827,1.5756995708215983e-8
2,3, 1, 3, 0, 6, 0.00,60.00,Saturday
4973,-1.1287838217195963
4826,2682048.4250981176
4827,1.1960992196691223e-7
2,3, 1, 3, 0, 7, 0.00,60.00,Saturday
4973,-1.1260839077276832
4826,2638751.4871577697
4827,9.044924809131771e-8
2,3, 1, 3, 0, 8, 0.00,60.00,Saturday
4973,-1.1215132700981339
4826,2591434.13140269
4827,2.9696138881263324e-8
2,3, 1, 3, 0, 9, 0.00,60.00,Saturday
4973,-1.1177339784843159
4826,2596831.3200825506
4827,8.461711331619881e-8
2,3, 1, 3, 0,10, 0.00,60.00,Saturday
4973,-1.113937948120999
4826,2549729.5378673209
4827,9.495124686509371e-8
2,3, 1, 3, 0,11, 0.00,60.00,Saturday
4973,-1.1109265151612309
4826,2562832.8711621
4827,4.501998773775995e-8
2,3, 1, 3, 0,12, 0.00,60.00,Saturday
4973,-1.1084778379029175
4826,2522144.691059891
4827,6.149321052362211e-8
2,3, 1, 3, 0,13, 0.00,60.00,Saturday
4973,-1.105441031997104
4826,2485623.418335686
4827,5.228457666817121e-8
2,3, 1, 3, 0,14, 0.00,60.00,Saturday
4973,-1.1020103118060343
4826,2451542.870763979
4827,8.124061423586682e-8
2,3, 1, 3, 0,15, 0.00,60.00,Saturday
4973,-1.0974261063470552
4826,2382993.329589909
4827,7.192966222646646e-8
2,3, 1, 3, 0,16, 0.00,60.00,Saturday
4973,-1.091272898261869
4826,2364651.8321697607
4827,8.021743269637227e-8
2,3, 1, 3, 0,17, 0.00,60.00,Saturday
4973,-1.086260457663107
4826,2392432.5761205425
4827,1.2871623766841368e-7
2,3, 1, 3, 0,18, 0.00,60.00,Saturday
4973,-1.0814488377212257
4826,2371316.3006861729
4827,1.2042846719850787e-7
2,3, 1, 3, 0,19, 0.00,60.00,Saturday
4973,-1.0746217088593484
4826,2334415.2720735336
4827,6.190248313941993e-8
2,3, 1, 3, 0,20, 0.00,60.00,Saturday
4973,-1.067059587282135
4826,2189313.4712066717
4827,1.984972186619416e-8
2,3, 1, 3, 0,21, 0.00,60.00,Saturday
4973,-1.0589303777131139
4826,2115859.427030582
4827,8.594724931754172e-8
2,3, 1, 3, 0,22, 0.00,60.00,Saturday
4973,-1.0507008187778504
4826,2086239.0223271279
4827,1.0518306226003915e-7
2,3, 1, 3, 0,23, 0.00,60.00,Saturday
4973,-1.0440937630774776
4826,2070973.1228231495
4827,3.714148988365196e-8
2,3, 1, 3, 0,24, 0.00,60.00,Saturday
4973,-1.0378327453087538
4826,2002230.452655489
4827,2.4556356947869064e-8
2,4, 1, 4, 0, 1, 0.00,60.00,Sunday
4973,-1.0340966766229263
4826,2137355.3671502836
4827,7.320722223729697
2,4, 1, 4, 0, 2, 0.00,60.00,Sunday
4973,-1.0296999853665532
4826,2136472.313417145
4827,5.780975698144175e-8
2,4, 1, 4, 0, 3, 0.00,60.00,Sunday
4973,-1.0264893960264532
4826,2116675.154775045
4827,3.980176188633777e-8
2,4, 1, 4, 0, 4, 0.00,60.00,Sunday
4973,-1.0233646691367156
4826,2102864.0755534109
4827,1.9235812942497433e-8
2,4, 1, 4, 0, 5, 0.00,60.00,Sunday
4973,-1.0200093287379142
4826,2093768.0729712507
4827,1.3475300875143149e-7
2,4, 1, 4, 0, 6, 0.00,60.00,Sunday
4973,-1.016344607502452
4826,2088491.8811131372
4827,6.139089236967266e-8
2,4, 1, 4, 0, 7, 0.00,60.00,Sunday
4973,-1.0131389266941498
4826,2082098.6259996719
4827,4.246203388902359e-8
2,4, 1, 4, 0, 8, 0.00,60.00,Sunday
4973,-1.0107739412315682
4826,2072109.1993557539
4827,3.883656063408125e-8
2,4, 1, 4, 0, 9, 0.00,60.00,Sunday
4973,-1.0105893038654719
4826,2113162.89846377
4827,2.7114310796605424e-8
2,4, 1, 4, 0,10, 0.00,60.00,Sunday
4973,-1.011415621605423
4826,2090393.3777122689
4827,3.049080987693742e-8
2,4, 1, 4, 0,11, 0.00,60.00,Sunday
4973,-1.0128533565671685
4826,2125718.9917811488
4827,7.285052561201155e-8
2,4, 1, 4, 0,12, 0.00,60.00,Sunday
4973,-1.0163616275488608
4826,2098221.8027566529
4827,5.985612006043084e-8
2,4, 1, 4, 0,13, 0.00,60.00,Sunday
4973,-1.0184930330977882
4826,2062321.8909343288
4827,4.051798896398395e-8
2,4, 1, 4, 0,14, 0.00,60.00,Sunday
4973,-1.0194409824826063
4826,2010757.6077554762
4827,2.240767571493052e-8
2,4, 1, 4, 0,15, 0.00,60.00,Sunday
4973,-1.01669647631382
4826,1903270.6109150053
4827,3.2025582186179238e-8
2,4, 1, 4, 0,16, 0.00,60.00,Sunday
4973,-1.0085580512384143
4826,1846679.4440822723
4827,1.50407686305698e-8
2,4, 1, 4, 0,17, 0.00,60.00,Sunday
4973,-0.9995219200432574
4826,1874006.8429248024
4827,5.085212251287885e-8
2,4, 1, 4, 0,18, 0.00,60.00,Sunday
4973,-0.9936226407585285
4826,1875823.589269278
4827,7.152038961066865e-8
2,4, 1, 4, 0,19, 0.00,60.00,Sunday
4973,-0.9878559420679719
4826,1876551.9547010908
4827,9.996483640861698e-8
2,4, 1, 4, 0,20, 0.00,60.00,Sunday
4973,-0.9824139393359737
4826,1769896.6263342982
4827,2.6986413104168606e-8
2,4, 1, 4, 0,21, 0.00,60.00,Sunday
4973,-0.9788975385505679
4826,1728358.113909545
4827,3.913669388566632e-8
2,4, 1, 4, 0,22, 0.00,60.00,Sunday
4973,-0.9759150308436948
4826,1718437.3453231734
4827,3.100240064668469e-8
2,4, 1, 4, 0,23, 0.00,60.00,Sunday
4973,-0.9734265276486274
4826,1711221.9465333368
4827,2.48121523327427e-8
2,4, 1, 4, 0,24, 0.00,60.00,Sunday
4973,-0.9710303912406137
4826,1644051.4065514843
4827,4.3434056351543407e-8
2,5, 1, 5, 0, 1, 0.00,60.00,Monday
4973,-0.9710804272252153
4826,1777336.8562637193
4827,0.6429959748345482
2,5, 1, 5, 0, 2, 0.00,60.00,Monday
4973,-0.9705496068255671
4826,1774557.0884484593
4827,3.8676262192893776e-8
2,5, 1, 5, 0, 3, 0.00,60.00,Monday
4973,-0.9710250559042521
4826,1791341.6471315537
4827,3.806235326919705e-8
2,5, 1, 5, 0, 4, 0.00,60.00,Monday
4973,-0.973284282278996
4826,1810940.9254214257
4827,5.530296220968012e-8
2,5, 1, 5, 0, 5, 0.00,60.00,Monday
4973,-0.9767588675840184
4826,1824892.1930418404
4827,8.604956747149117e-8
2,5, 1, 5, 0, 6, 0.00,60.00,Monday
4973,-0.9798879268055734
4826,1839754.340795722
4827,4.3229420043644498e-8
2,5, 1, 5, 0, 7, 0.00,60.00,Monday
4973,-0.9828478160864987
4826,1855322.2805163707
4827,6.660911822109483e-8
2,5, 1, 5, 0, 8, 0.00,60.00,Monday
4973,-1.5193020683200396
4826,0.0
4827,0.0
2,5, 1, 5, 0, 9, 0.00,60.00,Monday
4973,-1.827750516185748
4826,0.0
4827,0.0
2,5, 1, 5, 0,10, 0.00,60.00,Monday
4973,-1.8536195564125507
4826,0.0
4827,0.0
2,5, 1, 5, 0,11, 0.00,60.00,Monday
4973,-1.8697025818785205
4826,0.0
4827,0.0
2,5, 1, 5, 0,12, 0.00,60.00,Monday
4973,-1.8829495944946089
4826,0.0
4827,0.0
2,5, 1, 5, 0,13, 0.00,60.00,Monday
4973,-1.891179627881375
4826,0.0
4827,0.0
2,5, 1, 5, 0,14, 0.00,60.00,Monday
4973,-1.8918099490879615
4826,0.0
4827,0.0
2,5, 1, 5, 0,15, 0.00,60.00,Monday
4973,-1.8896837928628115
4826,0.0
4827,0.0
2,5, 1, 5, 0,16, 0.00,60.00,Monday
4973,-1.8843466132887648
4826,0.0
4827,0.0
2,5, 1, 5, 0,17, 0.00,60.00,Monday
4973,-1.8820562621550468
4826,0.0
4827,0.0
2,5, 1, 5, 0,18, 0.00,60.00,Monday
4973,-1.8807528829065464
4826,0.0
4827,0.0
2,5, 1, 5, 0,19, 0.00,60.00,Monday
4973,-1.8811549688091316
4826,0.0
4827,0.0
2,5, 1, 5, 0,20, 0.00,60.00,Monday
4973,-1.8719985049598047
4826,0.0
4827,0.0
2,5, 1, 5, 0,21, 0.00,60.00,Monday
4973,-1.8848855307542869
4826,0.0
4827,0.0
2,5, 1, 5, 0,22, 0.00,60.00,Monday
4973,-1.29994176747257
4826,3092580.736186658
4827,5.796664481749758e-8
2,5, 1, 5, 0,23, 0.00,60.00,Monday
4973,-1.0954764355706204
4826,2202608.925793661
4827,8.287770469905809e-8
2,5, 1, 5, 0,24, 0.00,60.00,Monday
4973,-1.0821612414695566
4826,2080230.267221829
4827,7.663629730814137e-8
2,6, 1, 6, 0, 1, 0.00,60.00,Tuesday
4973,-1.0721890690544996
4826,2259086.7013060336
4827,6.62742146019923
2,6, 1, 6, 0, 2, 0.00,60.00,Tuesday
4973,-1.0642704262132022
4826,2253581.542741234
4827,9.791847332962789e-8
2,6, 1, 6, 0, 3, 0.00,60.00,Tuesday
4973,-1.0562880766339447
4826,2208664.8461659939
4827,3.2230218494078147e-8
2,6, 1, 6, 0, 4, 0.00,60.00,Tuesday
4973,-1.0487227245831295
4826,2176990.3224438668
4827,6.261871021706611e-8
2,6, 1, 6, 0, 5, 0.00,60.00,Tuesday
4973,-1.041783633437451
4826,2162353.7459363609
4827,1.3025100997765549e-7
2,6, 1, 6, 0, 6, 0.00,60.00,Tuesday
4973,-1.035534030941717
4826,2145804.518757642
4827,8.983533916762099e-8
2,6, 1, 6, 0, 7, 0.00,60.00,Tuesday
4973,-1.0303092992512709
4826,2131172.8356295519
4827,5.750280251959339e-8
2,6, 1, 6, 0, 8, 0.00,60.00,Tuesday
4973,-1.5631709062556978
4826,0.0
4827,0.0
2,6, 1, 6, 0, 9, 0.00,60.00,Tuesday
4973,-1.9018768417108075
4826,0.0
4827,0.0
2,6, 1, 6, 0,10, 0.00,60.00,Tuesday
4973,-1.9048729986256366
4826,0.0
4827,0.0
2,6, 1, 6, 0,11, 0.00,60.00,Tuesday
4973,-1.8961733301901185
4826,0.0
4827,0.0
2,6, 1, 6, 0,12, 0.00,60.00,Tuesday
4973,-1.8831623247005678
4826,0.0
4827,0.0
2,6, 1, 6, 0,13, 0.00,60.00,Tuesday
4973,-1.8609907194626827
4826,0.0
4827,0.0
2,6, 1, 6, 0,14, 0.00,60.00,Tuesday
4973,-1.8269141547395258
4826,0.0
4827,0.0
2,6, 1, 6, 0,15, 0.00,60.00,Tuesday
4973,-1.7842412781740585
4826,0.0
4827,0.0
2,6, 1, 6, 0,16, 0.00,60.00,Tuesday
4973,-1.7258570743546205
4826,0.0
4827,0.0
2,6, 1, 6, 0,17, 0.00,60.00,Tuesday
4973,-1.684929222306691
4826,0.0
4827,0.0
2,6, 1, 6, 0,18, 0.00,60.00,Tuesday
4973,-1.6916435635559315
4826,0.0
4827,0.0
2,6, 1, 6, 0,19, 0.00,60.00,Tuesday
4973,-1.7177865698599293
4826,0.0
4827,0.0
2,6, 1, 6, 0,20, 0.00,60.00,Tuesday
4973,-1.731411703397804
4826,0.0
4827,0.0
2,6, 1, 6, 0,21, 0.00,60.00,Tuesday
4973,-1.7580762208805978
4826,0.0
4827,0.0
2,6, 1, 6, 0,22, 0.00,60.00,Tuesday
4973,-1.2332687851881739
4826,2797190.3402904889
4827,6.311665856628679e-8
2,6, 1, 6, 0,23, 0.00,60.00,Tuesday
4973,-1.0495978341802473
4826,2040884.1462763223
4827,4.062030711793341e-8
2,6, 1, 6, 0,24, 0.00,60.00,Tuesday
4973,-1.037066741584343
4826,1927776.7603714367
4827,6.57905729894992e-8
2,7, 1, 7, 0, 1, 0.00,60.00,Wednesday
4973,-1.0310036110212962
4826,2115487.321506273
4827,4.820890353585128e-8
2,7, 1, 7, 0, 2, 0.00,60.00,Wednesday
4973,-1.0274625596192564
4826,2126823.4972692478
4827,4.420144250616431e-8
2,7, 1, 7, 0, 3, 0.00,60.00,Wednesday
4973,-1.0269217388505184
4826,2154474.723658018
4827,1.849912223406136e-7
2,7, 1, 7, 0, 4, 0.00,60.00,Wednesday
4973,-1.0284674869381952
4826,2200354.050614873
4827,5.228457666817121e-8
2,7, 1, 7, 0, 5, 0.00,60.00,Wednesday
4973,-1.0321749383497708
4826,2262374.985203202
4827,1.0405756256659515e-7
2,7, 1, 7, 0, 6, 0.00,60.00,Wednesday
4973,-1.0377560809795226
4826,2322698.491136181
4827,4.686171450885013e-8
2,7, 1, 7, 0, 7, 0.00,60.00,Wednesday
4973,-1.0438342742768947
4826,2374216.6176656845
4827,3.356035449542105e-8
2,7, 1, 7, 0, 8, 0.00,60.00,Wednesday
4973,-1.709346879667293
4826,0.0
4827,0.0
2,7, 1, 7, 0, 9, 0.00,60.00,Wednesday
4973,-2.0831326966257857
4826,0.0
4827,0.0
2,7, 1, 7, 0,10, 0.00,60.00,Wednesday
4973,-2.1173105194073118
4826,0.0
4827,0.0
2,7, 1, 7, 0,11, 0.00,60.00,Wednesday
4973,-2.1291541603195616
4826,0.0
4827,0.0
2,7, 1, 7, 0,12, 0.00,60.00,Wednesday
4973,-2.1181217085223826
4826,0.0
4827,0.0
2,7, 1, 7, 0,13, 0.00,60.00,Wednesday
4973,-2.079865728455203
4826,0.0
4827,0.0
2,7, 1, 7, 0,14, 0.00,60.00,Wednesday
4973,-2.0107418108535257
4826,0.0
4827,0.0
2,7, 1, 7, 0,15, 0.00,60.00,Wednesday
4973,-1.9120972974697848
4826,0.0
4827,0.0
2,7, 1, 7, 0,16, 0.00,60.00,Wednesday
4973,-1.7922216258084749
4826,0.0
4827,0.0
2,7, 1, 7, 0,17, 0.00,60.00,Wednesday
4973,-1.706237599723537
4826,0.0
4827,0.0
2,7, 1, 7, 0,18, 0.00,60.00,Wednesday
4973,-1.716613563066576
4826,0.0
4827,0.0
2,7, 1, 7, 0,19, 0.00,60.00,Wednesday
4973,-1.7410500342412237
4826,0.0
4827,0.0
2,7, 1, 7, 0,20, 0.00,60.00,Wednesday
4973,-1.7532423320560858
4826,0.0
4827,0.0
2,7, 1, 7, 0,21, 0.00,60.00,Wednesday
4973,-1.7709574481106785
4826,0.0
4827,0.0
2,7, 1, 7, 0,22, 0.00,60.00,Wednesday
4973,-1.264059789744894
4826,2669288.4616122308
4827,8.775487003731541e-8
2,7, 1, 7, 0,23, 0.00,60.00,Wednesday
4973,-1.088508933168601
4826,2081050.2446788217
4827,3.0183855415089059e-8
2,7, 1, 7, 0,24, 0.00,60.00,Wednesday
4973,-1.0744323023995542
4826,1966191.9786154517
4827,5.248921297607012e-8
2,8, 1, 8, 0, 1, 0.00,60.00,Thursday
4973,-1.0664187403770567
4826,2150561.851522991
4827,8.915078199476868e-8
2,8, 1, 8, 0, 2, 0.00,60.00,Thursday
4973,-1.0598468064555089
4826,2147711.597804206
4827,5.136371328262612e-8
2,8, 1, 8, 0, 3, 0.00,60.00,Thursday
4973,-1.0543409482076963
4826,2161543.0322190865
4827,6.313030098681338e-8
2,8, 1, 8, 0, 4, 0.00,60.00,Thursday
4973,-1.0499712070185917
4826,2175456.444541934
4827,8.625420377939008e-8
2,8, 1, 8, 0, 5, 0.00,60.00,Thursday
4973,-1.0463420629230016
4826,2180232.476653849
4827,1.4529177860822529e-8
2,8, 1, 8, 0, 6, 0.00,60.00,Thursday
4973,-1.0428980659773542
4826,2185497.5717594877
4827,8.257075023720972e-8
2,8, 1, 8, 0, 7, 0.00,60.00,Thursday
4973,-1.0405727680992572
4826,2182794.1721730765
4827,7.950120561872609e-8
2,8, 1, 8, 0, 8, 0.00,60.00,Thursday
4973,-1.5871474886597217
4826,0.0
4827,0.0
2,8, 1, 8, 0, 9, 0.00,60.00,Thursday
4973,-1.930625633232018
4826,0.0
4827,0.0
2,8, 1, 8, 0,10, 0.00,60.00,Thursday
4973,-1.9341544980935442
4826,0.0
4827,0.0
2,8, 1, 8, 0,11, 0.00,60.00,Thursday
4973,-1.9315417560691986
4826,0.0
4827,0.0
2,8, 1, 8, 0,12, 0.00,60.00,Thursday
4973,-1.9168669243262602
4826,0.0
4827,0.0
2,8, 1, 8, 0,13, 0.00,60.00,Thursday
4973,-1.8995427867400943
4826,0.0
4827,0.0
2,8, 1, 8, 0,14, 0.00,60.00,Thursday
4973,-1.8791420601727016
4826,0.0
4827,0.0
2,8, 1, 8, 0,15, 0.00,60.00,Thursday
4973,-1.856177108446486
4826,0.0
4827,0.0
2,8, 1, 8, 0,16, 0.00,60.00,Thursday
4973,-1.834744572251155
4826,0.0
4827,0.0
2,8, 1, 8, 0,17, 0.00,60.00,Thursday
4973,-1.8154271599345689
4826,0.0
4827,0.0
2,8, 1, 8, 0,18, 0.00,60.00,Thursday
4973,-1.8109861684656965
4826,0.0
4827,0.0
2,8, 1, 8, 0,19, 0.00,60.00,Thursday
4973,-1.8230855148110457
4826,0.0
4827,0.0
2,8, 1, 8, 0,20, 0.00,60.00,Thursday
4973,-1.8324371805782982
4826,0.0
4827,0.0
2,8, 1, 8, 0,21, 0.00,60.00,Thursday
4973,-1.841171899942691
4826,0.0
4827,0.0
2,8, 1, 8, 0,22, 0.00,60.00,Thursday
4973,-1.279896727549537
4826,2914949.701744364
4827,1.0849475984286983e-7
2,8, 1, 8, 0,23, 0.00,60.00,Thursday
4973,-1.0837814004519489
4826,2103960.213494911
4827,2.0975221559638159e-8
2,8, 1, 8, 0,24, 0.00,60.00,Thursday
4973,-1.0662430580163152
4826,1994384.5454815762
4827,4.440607881406322e-8
2,9, 1, 9, 0, 1, 0.00,60.00,Friday
4973,-1.0575362473455253
4826,2196277.9782319816
4827,5.572928785113618e-8
2,9, 1, 9, 0, 2, 0.00,60.00,Friday
4973,-1.0530228911414624
4826,2213859.8124381785
4827,7.561311576864682e-8
2,9, 1, 9, 0, 3, 0.00,60.00,Friday
4973,-1.0496804937345755
4826,2213120.4942599406
4827,1.2278178473934532e-8
2,9, 1, 9, 0, 4, 0.00,60.00,Friday
4973,-1.0460531351541969
4826,2198251.7951565787
4827,6.865548130008392e-8
2,9, 1, 9, 0, 5, 0.00,60.00,Friday
4973,-1.0419021524657113
4826,2183747.68355569
4827,1.0375060810474679e-7
2,9, 1, 9, 0, 6, 0.00,60.00,Friday
4973,-1.0378658019441723
4826,2172706.96823559
4827,7.213429853436537e-8
2,9, 1, 9, 0, 7, 0.00,60.00,Friday
4973,-1.0349791228577894
4826,2163842.6796377289
4827,6.118625606177375e-8
2,9, 1, 9, 0, 8, 0.00,60.00,Friday
4973,-1.5731230190484587
4826,0.0
4827,0.0
2,9, 1, 9, 0, 9, 0.00,60.00,Friday
4973,-1.9206676148829854
4826,0.0
4827,0.0
2,9, 1, 9, 0,10, 0.00,60.00,Friday
4973,-1.939394614230296
4826,0.0
4827,0.0
2,9, 1, 9, 0,11, 0.00,60.00,Friday
4973,-1.9468433577852007
4826,0.0
4827,0.0
2,9, 1, 9, 0,12, 0.00,60.00,Friday
4973,-1.9490384643716055
4826,0.0
4827,0.0
2,9, 1, 9, 0,13, 0.00,60.00,Friday
4973,-1.9501200639353489
4826,0.0
4827,0.0
2,9, 1, 9, 0,14, 0.00,60.00,Friday
4973,-1.9455710340475537
4826,0.0
4827,0.0
2,9, 1, 9, 0,15, 0.00,60.00,Friday
4973,-1.9442150240429979
4826,0.0
4827,0.0
2,9, 1, 9, 0,16, 0.00,60.00,Friday
4973,-1.9418192815807496
4826,0.0
4827,0.0
2,9, 1, 9, 0,17, 0.00,60.00,Friday
4973,-1.9452729925614434
4826,0.0
4827,0.0
2,9, 1, 9, 0,18, 0.00,60.00,Friday
4973,-1.9544659192399677
4826,0.0
4827,0.0
2,9, 1, 9, 0,19, 0.00,60.00,Friday
4973,-1.9608084278313858
4826,0.0
4827,0.0
2,9, 1, 9, 0,20, 0.00,60.00,Friday
4973,-1.9496989813428277
4826,0.0
4827,0.0
2,9, 1, 9, 0,21, 0.00,60.00,Friday
4973,-1.9464876158895677
4826,0.0
4827,0.0
2,9, 1, 9, 0,22, 0.00,60.00,Friday
4973,-1.3300982612471342
4826,3143192.572316019
4827,2.2400854504667224e-8
2,9, 1, 9, 0,23, 0.00,60.00,Friday
4973,-1.119854026945308
4826,2336884.7008146678
4827,3.171862772433087e-8
2,9, 1, 9, 0,24, 0.00,60.00,Friday
4973,-1.1039036488082695
4826,2179875.4436901977
4827,8.656115824123845e-8
2,10, 1,10, 0, 1, 0.00,60.00,Saturday
4973,-1.094253114111658
4826,2324623.345189328
4827,7.438529792125337e-8
2,10, 1,10, 0, 2, 0.00,60.00,Saturday
4973,-1.0868633288889989
4826,2290968.18551432
4827,4.696403266279958e-8
2,10, 1,10, 0, 3, 0.00,60.00,Saturday
4973,-1.080248161483325
4826,2248861.527200613
4827,7.49992068449501e-8
2,10, 1,10, 0, 4, 0.00,60.00,Saturday
4973,-1.073811675039563
4826,2216011.161014122
4827,2.936531018349342e-8
2,10, 1,10, 0, 5, 0.00,60.00,Saturday
4973,-1.0673983796381888
4826,2194076.9146537848
4827,1.1664269550237805e-7
2,10, 1,10, 0, 6, 0.00,60.00,Saturday
4973,-1.0614117148511744
4826,2179457.586798701
4827,3.171862772433087e-8
2,10, 1,10, 0, 7, 0.00,60.00,Saturday
4973,-1.0564144392140742
4826,2164881.029106061
4827,1.1070824257330969e-7
2,10, 1,10, 0, 8, 0.00,60.00,Saturday
4973,-1.052386161594117
4826,2144449.5764920797
4827,9.894165486912243e-8
2,10, 1,10, 0, 9, 0.00,60.00,Saturday
4973,-1.0494900843124103
4826,2191856.3012878654
4827,5.197762220632285e-8
2,10, 1,10, 0,10, 0.00,60.00,Saturday
4973,-1.048353620276573
4826,2171787.68463757
4827,6.988329914747738e-8
2,10, 1,10, 0,11, 0.00,60.00,Saturday
4973,-1.0483538791732512
4826,2191207.178229317
4827,7.806875146343373e-8
2,10, 1,10, 0,12, 0.00,60.00,Saturday
4973,-1.0494096105037155
4826,2141915.0304721344
4827,4.706635081674904e-9
2,10, 1,10, 0,13, 0.00,60.00,Saturday
4973,-1.0484689772016048
4826,2073297.075886629
4827,6.48697096039541e-8
2,10, 1,10, 0,14, 0.00,60.00,Saturday
4973,-1.0445426787809753
4826,1985830.2345170144
4827,1.3812950783176348e-8
2,10, 1,10, 0,15, 0.00,60.00,Saturday
4973,-1.0346552810509282
4826,1820532.461563695
4827,2.2816948330728338e-8
2,10, 1,10, 0,16, 0.00,60.00,Saturday
4973,-1.0170814153752069
4826,1714483.410423446
4827,2.0054358174093069e-8
2,10, 1,10, 0,17, 0.00,60.00,Saturday
4973,-0.9984819069607709
4826,1725509.4787687346
4827,6.277218744799029e-8
2,10, 1,10, 0,18, 0.00,60.00,Saturday
4973,-0.9866092536344608
4826,1727313.998618365
4827,5.8270188674214299e-8
2,10, 1,10, 0,19, 0.00,60.00,Saturday
4973,-0.9795687841220371
4826,1738497.6316897646
4827,9.00399754755199e-8
2,10, 1,10, 0,20, 0.00,60.00,Saturday
4973,-0.9747237859868552
4826,1632117.0848417488
4827,1.752198386384407e-8
2,10, 1,10, 0,21, 0.00,60.00,Saturday
4973,-0.9706869614809432
4826,1593022.7542376873
4827,6.359073267958593e-8
2,10, 1,10, 0,22, 0.00,60.00,Saturday
4973,-0.963887413626532
4826,1568017.3577220212
4827,2.5477220333414153e-8
2,10, 1,10, 0,23, 0.00,60.00,Saturday
4973,-0.9555983071779686
4826,1558268.5016642623
4827,4.143885234952904e-8
2,10, 1,10, 0,24, 0.00,60.00,Saturday
4973,-0.9482392505790285
4826,1529508.4235260834
4827,4.96243046654854e-8
2,11, 1,11, 0, 1, 0.00,60.00,Sunday
4973,-0.948029088533205
4826,1724689.003096149
4827,4.996049288560503e-8
2,11, 1,11, 0, 2, 0.00,60.00,Sunday
4973,-0.9524192867808263
4826,1786488.1961442857
4827,3.4992808650713417e-8
2,11, 1,11, 0, 3, 0.00,60.00,Sunday
4973,-0.9587114996652975
4826,1820103.9515907309
4827,5.8628302213037389e-8
2,11, 1,11, 0, 4, 0.00,60.00,Sunday
4973,-0.9626248980496419
4826,1834161.0784025109
4827,7.361791176663246e-8
2,11, 1,11, 0, 5, 0.00,60.00,Sunday
4973,-0.9646406184681576
4826,1852423.6635614443
4827,1.2380496627883986e-8
2,11, 1,11, 0, 6, 0.00,60.00,Sunday
4973,-0.9676411426226341
4826,1876742.3965962686
4827,2.4556356947869064e-8
2,11, 1,11, 0, 7, 0.00,60.00,Sunday
4973,-0.9715303660618415
4826,1898140.7213403283
4827,5.596803021035157e-8
2,11, 1,11, 0, 8, 0.00,60.00,Sunday
4973,-0.9742399028990825
4826,1888576.9186443133
4827,7.380549504887313e-8
2,11, 1,11, 0, 9, 0.00,60.00,Sunday
4973,-0.9748694700071772
4826,1878508.4781265285
4827,4.092726157978177e-9
2,11, 1,11, 0,10, 0.00,60.00,Sunday
4973,-0.9721412632580572
4826,1814269.1306870699
4827,8.2519591160235e-8
2,11, 1,11, 0,11, 0.00,60.00,Sunday
4973,-0.9677312830946854
4826,1826555.6955159207
4827,4.604316927725449e-9
2,11, 1,11, 0,12, 0.00,60.00,Sunday
4973,-0.9642486952631562
4826,1797631.2278519446
4827,7.939888746477664e-8
2,11, 1,11, 0,13, 0.00,60.00,Sunday
4973,-0.9618397494154473
4826,1773540.6218116075
4827,5.161950866749976e-8
2,11, 1,11, 0,14, 0.00,60.00,Sunday
4973,-0.9594962139482792
4826,1757261.493473409
4827,3.5504399420460689e-8
2,11, 1,11, 0,15, 0.00,60.00,Sunday
4973,-0.9568792944546739
4826,1670262.956717352
4827,3.391846803424414e-8
2,11, 1,11, 0,16, 0.00,60.00,Sunday
4973,-0.9532269136349124
4826,1639798.2330613493
4827,2.9672264645341785e-9
2,11, 1,11, 0,17, 0.00,60.00,Sunday
4973,-0.9509854401752891
4826,1676623.3535671007
4827,5.9037574828835207e-8
2,11, 1,11, 0,18, 0.00,60.00,Sunday
4973,-0.9496139007114011
4826,1661097.0387496744
4827,3.908553480869159e-8
2,11, 1,11, 0,19, 0.00,60.00,Sunday
4973,-0.9463373847086178
4826,1632390.3680104896
4827,2.2612312022829429e-8
2,11, 1,11, 0,20, 0.00,60.00,Sunday
4973,-0.9430748661537178
4826,1487375.1274435016
4827,3.6067149267182688e-8
2,11, 1,11, 0,21, 0.00,60.00,Sunday
4973,-0.9397619327720042
4826,1426082.7184491542
4827,3.765308065339923e-8
2,11, 1,11, 0,22, 0.00,60.00,Sunday
4973,-0.9366529181862675
4826,1405766.4635438729
4827,6.231175575521775e-8
2,11, 1,11, 0,23, 0.00,60.00,Sunday
4973,-0.9354708400992837
4826,1391872.4993824433
4827,1.9696244635269978e-8
2,11, 1,11, 0,24, 0.00,60.00,Sunday
4973,-0.9346925853248816
4826,1329461.175384667
4827,1.724060894048307e-8
2,12, 1,12, 0, 1, 0.00,60.00,Monday
4973,-0.9357820750952729
4826,1472238.5485115709
4827,4.9697545224402208e-8
2,12, 1,12, 0, 2, 0.00,60.00,Monday
4973,-0.9370211909370821
4826,1483635.2278459578
4827,6.087930159992538e-9
2,12, 1,12, 0, 3, 0.00,60.00,Monday
4973,-0.9387391256045702
4826,1513815.1959646908
4827,6.139089236967266e-8
2,12, 1,12, 0, 4, 0.00,60.00,Monday
4973,-0.9400864448647726
4826,1541712.4112011377
4827,6.52278231427772e-8
2,12, 1,12, 0, 5, 0.00,60.00,Monday
4973,-0.9399799216880999
4826,1567405.1814828492
4827,6.584173206647393e-8
2,12, 1,12, 0, 6, 0.00,60.00,Monday
4973,-0.9384743351462068
4826,1591883.887357729
4827,5.3717030823463577e-8
2,12, 1,12, 0, 7, 0.00,60.00,Monday
4973,-0.9359650497296382
4826,1609172.157508147
4827,6.978098099352792e-8
2,12, 1,12, 0, 8, 0.00,60.00,Monday
4973,-1.405813518162065
4826,0.0
4827,0.0
2,12, 1,12, 0, 9, 0.00,60.00,Monday
4973,-1.680827953316548
4826,0.0
4827,0.0
2,12, 1,12, 0,10, 0.00,60.00,Monday
4973,-1.691762804152439
4826,0.0
4827,0.0
2,12, 1,12, 0,11, 0.00,60.00,Monday
4973,-1.6982619027366999
4826,0.0
4827,0.0
2,12, 1,12, 0,12, 0.00,60.00,Monday
4973,-1.7089625791539045
4826,0.0
4827,0.0
2,12, 1,12, 0,13, 0.00,60.00,Monday
4973,-1.7162381293354186
4826,0.0
4827,0.0
2,12, 1,12, 0,14, 0.00,60.00,Monday
4973,-1.7258550550337449
4826,0.0
4827,0.0
2,12, 1,12, 0,15, 0.00,60.00,Monday
4973,-1.7277717446405259
4826,0.0
4827,0.0
2,12, 1,12, 0,16, 0.00,60.00,Monday
4973,-1.7218586916247883
4826,0.0
4827,0.0
2,12, 1,12, 0,17, 0.00,60.00,Monday
4973,-1.711811854885776
4826,0.0
4827,0.0
2,12, 1,12, 0,18, 0.00,60.00,Monday
4973,-1.702181246742494
4826,0.0
4827,0.0
2,12, 1,12, 0,19, 0.00,60.00,Monday
4973,-1.7000220781562763
4826,0.0
4827,0.0
2,12, 1,12, 0,20, 0.00,60.00,Monday
4973,-1.692657776262143
4826,0.0
4827,0.0
2,12, 1,12, 0,21, 0.00,60.00,Monday
4973,-1.694727961092307
4826,0.0
4827,0.0
2,12, 1,12, 0,22, 0.00,60.00,Monday
4973,-1.18779665332888
4826,2422863.488271442
4827,8.14998202258721e-8
2,12, 1,12, 0,23, 0.00,60.00,Monday
4973,-1.0164775649834233
4826,1766849.996983366
4827,6.159552867757157e-8
2,12, 1,12, 0,24, 0.00,60.00,Monday
4973,-1.0038630697221787
4826,1641494.1711376426
4827,4.261551111994777e-8
2,13, 1,13, 0, 1, 0.00,60.00,Tuesday
4973,-0.9960687997033113
4826,1810093.5431985185
4827,5.605910604335279
2,13, 1,13, 0, 2, 0.00,60.00,Tuesday
4973,-0.9895769904966916
4826,1794929.2493808643
4827,0.0
2,13, 1,13, 0, 3, 0.00,60.00,Tuesday
4973,-0.983777167296369
4826,1782145.1150998828
4827,1.928697201947216e-8
2,13, 1,13, 0, 4, 0.00,60.00,Tuesday
4973,-0.9786902517944172
4826,1771123.902907161
4827,1.1055476534238551e-7
2,13, 1,13, 0, 5, 0.00,60.00,Tuesday
4973,-0.9739876320750478
4826,1766165.4514825007
4827,9.433733794139698e-8
2,13, 1,13, 0, 6, 0.00,60.00,Tuesday
4973,-0.9695174722672277
4826,1765969.0105784406
4827,5.6428461903124119e-8
2,13, 1,13, 0, 7, 0.00,60.00,Tuesday
4973,-0.9662151724979665
4826,1763515.0083003385
4827,3.156515049340669e-8
2,13, 1,13, 0, 8, 0.00,60.00,Tuesday