Program Version,EnergyPlus, Version 8.7.0-78a111df4a, YMD=2019.05.28 05:48
1,5,Environment Title[],Latitude[deg],Longitude[deg],Time Zone[],Elevation[m]
2,6,Day of Simulation[],Month[],Day of Month[],DST Indicator[1=yes 0=no],Hour[],StartMinute[],EndMinute[],DayType
3,3,Cumulative Day of Simulation[],Month[],Day of Month[],DST Indicator[1=yes 0=no],DayType  ! When Daily Report Variables Requested
4,2,Cumulative Days of Simulation[],Month[]  ! When Monthly Report Variables Requested
5,1,Cumulative Days of Simulation[] ! When Run Period Report Variables Requested
4826,1,BEDROOM2.2,Zone Ideal Loads Zone Total Heating Energy [J] !Hourly
4827,1,BEDROOM2.2,Zone Ideal Loads Zone Total Cooling Energy [J] !Hourly
4973,1,BEDROOM2.2,Zone Thermal Comfort Fanger Model PMV [] !Hourly
End of Data Dictionary
1,RUNPERIOD,  29.58, 106.47,   8.00, 259.10
2,1, 1, 1, 0, 1, 0.00,60.00,Thursday
4973,-1.1066277614703753
4826,2551473.5280820729
4827,6.949697060256519e-8
2,1, 1, 1, 0, 2, 0.00,60.00,Thursday
4973,-1.0995601624528156
4826,2563435.2090030515
4827,8.124061423586682e-8
2,1, 1, 1, 0, 3, 0.00,60.00,Thursday
4973,-1.0919836714013576
4826,2499557.8440629516
4827,1.1521024134708569e-7
2,1, 1, 1, 0, 4, 0.00,60.00,Thursday
4973,-1.0856718806822313
4826,2467046.5924506078
4827,9.495124686509371e-8
2,1, 1, 1, 0, 5, 0.00,60.00,Thursday
4973,-1.083503383320421
4826,2491136.2325460345
4827,5.760512067354284e-8
2,1, 1, 1, 0, 6, 0.00,60.00,Thursday
4973,-1.0845052914890987
4826,2521583.7994644974
4827,1.2922782843816095e-7
2,1, 1, 1, 0, 7, 0.00,60.00,Thursday
4973,-1.0877810638433499
4826,2547979.3557164196
4827,6.425580068025738e-8
2,1, 1, 1, 0, 8, 0.00,60.00,Thursday
4973,-1.730064754256322
4826,0.0
4827,0.0
2,1, 1, 1, 0, 9, 0.00,60.00,Thursday
4973,-2.1414296943837169
4826,0.0
4827,0.0
2,1, 1, 1, 0,10, 0.00,60.00,Thursday
4973,-2.1797257557635385
4826,0.0
4827,0.0
2,1, 1, 1, 0,11, 0.00,60.00,Thursday
4973,-2.18540795471706
4826,0.0
4827,0.0
2,1, 1, 1, 0,12, 0.00,60.00,Thursday
4973,-2.1784439258229826
4826,0.0
4827,0.0
2,1, 1, 1, 0,13, 0.00,60.00,Thursday
4973,-2.157155805055281
4826,0.0
4827,0.0
2,1, 1, 1, 0,14, 0.00,60.00,Thursday
4973,-2.1172461820240109
4826,0.0
4827,0.0
2,1, 1, 1, 0,15, 0.00,60.00,Thursday
4973,-2.0675693242335444
4826,0.0
4827,0.0
2,1, 1, 1, 0,16, 0.00,60.00,Thursday
4973,-2.004515211991375
4826,0.0
4827,0.0
2,1, 1, 1, 0,17, 0.00,60.00,Thursday
4973,-1.932600624798791
4826,0.0
4827,0.0
2,1, 1, 1, 0,18, 0.00,60.00,Thursday
4973,-1.869375740026741
4826,0.0
4827,0.0
2,1, 1, 1, 0,19, 0.00,60.00,Thursday
4973,-1.8248436841304115
4826,0.0
4827,0.0
2,1, 1, 1, 0,20, 0.00,60.00,Thursday
4973,-1.8005793384134346
4826,0.0
4827,0.0
2,1, 1, 1, 0,21, 0.00,60.00,Thursday
4973,-1.8398260505191968
4826,0.0
4827,0.0
2,1, 1, 1, 0,22, 0.00,60.00,Thursday
4973,-1.3045543405040446
4826,3097706.298410291
4827,1.3577619029092603e-8
2,1, 1, 1, 0,23, 0.00,60.00,Thursday
4973,-1.1159971357977532
4826,2436067.19417636
4827,4.952198651153594e-8
2,1, 1, 1, 0,24, 0.00,60.00,Thursday
4973,-1.1106874466060144
4826,2327401.83545189
4827,2.384012987022288e-8
2,2, 1, 2, 0, 1, 0.00,60.00,Friday
4973,-1.108013673360469
4826,2517752.5518674596
4827,7.09601202040424e-8
2,2, 1, 2, 0, 2, 0.00,60.00,Friday
4973,-1.10659342568961
4826,2518946.410334521
4827,1.1326619642204605e-7
2,2, 1, 2, 0, 3, 0.00,60.00,Friday
4973,-1.1061369305320328
4826,2526092.900072064
4827,1.2718146535917186e-7
2,2, 1, 2, 0, 4, 0.00,60.00,Friday
4973,-1.1036849998154915
4826,2524874.5410598574
4827,1.0323901733499952e-7
2,2, 1, 2, 0, 5, 0.00,60.00,Friday
4973,-1.1005703734013486
4826,2517386.6583679106
4827,7.571543392259628e-8
2,2, 1, 2, 0, 6, 0.00,60.00,Friday
4973,-1.0977272376335284
4826,2515843.5637663647
4827,5.085212251287885e-8
2,2, 1, 2, 0, 7, 0.00,60.00,Friday
4973,-1.0949626041716847
4826,2509825.4904047648
4827,7.755716069368646e-8
2,2, 1, 2, 0, 8, 0.00,60.00,Friday
4973,-1.6971070725428728
4826,0.0
4827,0.0
2,2, 1, 2, 0, 9, 0.00,60.00,Friday
4973,-2.061194792260589
4826,0.0
4827,0.0
2,2, 1, 2, 0,10, 0.00,60.00,Friday
4973,-2.042804007087349
4826,0.0
4827,0.0
2,2, 1, 2, 0,11, 0.00,60.00,Friday
4973,-2.0237716072437976
4826,0.0
4827,0.0
2,2, 1, 2, 0,12, 0.00,60.00,Friday
4973,-2.007670601740563
4826,0.0
4827,0.0
2,2, 1, 2, 0,13, 0.00,60.00,Friday
4973,-1.9893559833949648
4826,0.0
4827,0.0
2,2, 1, 2, 0,14, 0.00,60.00,Friday
4973,-1.969743511509954
4826,0.0
4827,0.0
2,2, 1, 2, 0,15, 0.00,60.00,Friday
4973,-1.9377522124662239
4826,0.0
4827,0.0
2,2, 1, 2, 0,16, 0.00,60.00,Friday
4973,-1.8989897884242966
4826,0.0
4827,0.0
2,2, 1, 2, 0,17, 0.00,60.00,Friday
4973,-1.8758409105858656
4826,0.0
4827,0.0
2,2, 1, 2, 0,18, 0.00,60.00,Friday
4973,-1.8965852631967795
4826,0.0
4827,0.0
2,2, 1, 2, 0,19, 0.00,60.00,Friday
4973,-1.942900254957484
4826,0.0
4827,0.0
2,2, 1, 2, 0,20, 0.00,60.00,Friday
4973,-1.9709425780942985
4826,0.0
4827,0.0
2,2, 1, 2, 0,21, 0.00,60.00,Friday
4973,-1.9978300960231539
4826,0.0
4827,0.0
2,2, 1, 2, 0,22, 0.00,60.00,Friday
4973,-1.351648353660178
4826,3464238.083473405
4827,5.327365215634927e-9
2,2, 1, 2, 0,23, 0.00,60.00,Friday
4973,-1.1223914751447864
4826,2457502.9195250889
4827,7.61247065383941e-8
2,2, 1, 2, 0,24, 0.00,60.00,Friday
4973,-1.1054551868250656
4826,2342614.4828251677
4827,8.645884008728899e-8
2,3, 1, 3, 0, 1, 0.00,60.00,Saturday
4973,-1.0992589276171699
4826,2553988.917290667
4827,9.637501948005097e-8
2,3, 1, 3, 0, 2, 0.00,60.00,Saturday
4973,-1.0978122300074887
4826,2593721.5595264059
4827,6.067466529202648e-8
2,3, 1, 3, 0, 3, 0.00,60.00,Saturday
4973,-1.1011822910514356
4826,2613883.833736384
4827,7.264588930411264e-8
2,3, 1, 3, 0, 4, 0.00,60.00,Saturday
4973,-1.1041030328557307
4826,2617664.4545628025
4827,7.254357115016319e-8
2,3, 1, 3, 0, 5, 0.00,60.00,Saturday
4973,-1.105495050273304
4826,2611218.4287256759
4827,6.517666406580247e-8
2,3, 1, 3, 0, 6, 0.00,60.00,Saturday
4973,-1.1056258271579354
4826,2591736.565345618
4827,5.1466031436575579e-8
2,3, 1, 3, 0, 7, 0.00,60.00,Saturday
4973,-1.103686639264644
4826,2552464.6284607045
4827,4.164348865742795e-8
2,3, 1, 3, 0, 8, 0.00,60.00,Saturday
4973,-1.0999375314199207
4826,2509098.7748159759
4827,9.829363989410922e-8
2,3, 1, 3, 0, 9, 0.00,60.00,Saturday
4973,-1.0969074238794968
4826,2518541.298426817
4827,4.870344127994031e-8
2,3, 1, 3, 0,10, 0.00,60.00,Saturday
4973,-1.0930600246427807
4826,2469486.049200962
4827,4.04156708100345e-8
2,3, 1, 3, 0,11, 0.00,60.00,Saturday
4973,-1.0899272298464343
4826,2480243.5492396887
4827,6.538130037370138e-8
2,3, 1, 3, 0,12, 0.00,60.00,Saturday
4973,-1.087712045230834
4826,2440509.230510914
4827,9.628138286643662e-8
2,3, 1, 3, 0,13, 0.00,60.00,Saturday
4973,-1.0845610886341298
4826,2402552.7491934208
4827,4.9317350203637037e-8
2,3, 1, 3, 0,14, 0.00,60.00,Saturday
4973,-1.0810699506749662
4826,2367000.576625285
4827,5.913989298278466e-8
2,3, 1, 3, 0,15, 0.00,60.00,Saturday
4973,-1.0772591698228725
4826,2303226.7405740108
4827,5.6070348364301029e-8
2,3, 1, 3, 0,16, 0.00,60.00,Saturday
4973,-1.0714680479934893
4826,2286755.1938518669
4827,8.932374839787372e-8
2,3, 1, 3, 0,17, 0.00,60.00,Saturday
4973,-1.0669831805267592
4826,2316554.7597570999
4827,2.3226220946526156e-8
2,3, 1, 3, 0,18, 0.00,60.00,Saturday
4973,-1.0633880852702773
4826,2302840.5400639858
4827,8.809593055048026e-8
2,3, 1, 3, 0,19, 0.00,60.00,Saturday
4973,-1.0575886418521552
4826,2272082.5633655537
4827,5.852598405908793e-8
2,3, 1, 3, 0,20, 0.00,60.00,Saturday
4973,-1.0509207994198875
4826,2131979.1607146339
4827,6.435811883420684e-8
2,3, 1, 3, 0,21, 0.00,60.00,Saturday
4973,-1.0434365361885734
4826,2062023.4684893066
4827,4.1029579733731228e-8
2,3, 1, 3, 0,22, 0.00,60.00,Saturday
4973,-1.0357083774289922
4826,2034540.6263758823
4827,6.169784683152102e-8
2,3, 1, 3, 0,23, 0.00,60.00,Saturday
4973,-1.0301031556384107
4826,2025461.892510356
4827,5.494484867085703e-8
2,3, 1, 3, 0,24, 0.00,60.00,Saturday
4973,-1.0246388859004486
4826,1961380.986376135
4827,9.92486093309708e-9
2,4, 1, 4, 0, 1, 0.00,60.00,Sunday
4973,-1.0215168284906984
4826,2099737.6972968496
4827,7.203989238003032
2,4, 1, 4, 0, 2, 0.00,60.00,Sunday
4973,-1.017860301194957
4826,2102962.8709295017
4827,5.412630343926139e-8
2,4, 1, 4, 0, 3, 0.00,60.00,Sunday
4973,-1.015236771902209
4826,2086444.3727698699
4827,4.880575943388976e-8
2,4, 1, 4, 0, 4, 0.00,60.00,Sunday
4973,-1.0125849669343104
4826,2074775.3466188824
4827,6.59952092973981e-8
2,4, 1, 4, 0, 5, 0.00,60.00,Sunday
4973,-1.0096307657702804
4826,2067486.3529961922
4827,9.24956111703068e-8
2,4, 1, 4, 0, 6, 0.00,60.00,Sunday
4973,-1.0067373492924148
4826,2066729.3243067447
4827,7.571543392259628e-9
2,4, 1, 4, 0, 7, 0.00,60.00,Sunday
4973,-1.0042144119938446
4826,2064578.876002924
4827,3.8266989577095958e-8
2,4, 1, 4, 0, 8, 0.00,60.00,Sunday
4973,-1.0021505741035744
4826,2055732.5303774416
4827,7.91362708696397e-8
2,4, 1, 4, 0, 9, 0.00,60.00,Sunday
4973,-1.0018592512992176
4826,2095276.2189376718
4827,1.0231815394945443e-8
2,4, 1, 4, 0,10, 0.00,60.00,Sunday
4973,-1.0014699317497782
4826,2064842.6132895123
4827,6.896243576193229e-8
2,4, 1, 4, 0,11, 0.00,60.00,Sunday
4973,-1.0011079014242963
4826,2089412.4252222896
4827,4.1234216041630137e-8
2,4, 1, 4, 0,12, 0.00,60.00,Sunday
4973,-1.002694885235732
4826,2051275.9018186457
4827,5.43309397471603e-8
2,4, 1, 4, 0,13, 0.00,60.00,Sunday
4973,-1.0022821280519017
4826,2000224.8994059785
4827,4.62478055851534e-8
2,4, 1, 4, 0,14, 0.00,60.00,Sunday
4973,-1.001330455859497
4826,1937397.9571534745
4827,5.566107574850321e-8
2,4, 1, 4, 0,15, 0.00,60.00,Sunday
4973,-0.9975792645872372
4826,1824369.3030983615
4827,6.328377821773756e-8
2,4, 1, 4, 0,16, 0.00,60.00,Sunday
4973,-0.989477903303812
4826,1768540.6496844534
4827,2.5221424948540517e-8
2,4, 1, 4, 0,17, 0.00,60.00,Sunday
4973,-0.9811099910566634
4826,1799540.251588946
4827,5.5149484978755939e-8
2,4, 1, 4, 0,18, 0.00,60.00,Sunday
4973,-0.9767429187792811
4826,1810105.9317486545
4827,3.6271785575081597e-8
2,4, 1, 4, 0,19, 0.00,60.00,Sunday
4973,-0.973543497924893
4826,1826353.9846842765
4827,1.2329337550909259e-8
2,4, 1, 4, 0,20, 0.00,60.00,Sunday
4973,-0.9698236391374171
4826,1730623.452045801
4827,3.3432456802984237e-8
2,4, 1, 4, 0,21, 0.00,60.00,Sunday
4973,-0.9677068360696346
4826,1697693.039776395
4827,2.184492586820852e-8
2,4, 1, 4, 0,22, 0.00,60.00,Sunday
4973,-0.9658475102479095
4826,1694692.9440440459
4827,3.34580363414716e-8
2,4, 1, 4, 0,23, 0.00,60.00,Sunday
4973,-0.9638354912363404
4826,1689504.7831659758
4827,9.377458809467498e-8
2,4, 1, 4, 0,24, 0.00,60.00,Sunday
4973,-0.9620617493111519
4826,1625365.7988216289
4827,3.4583536034915599e-8
2,5, 1, 5, 0, 1, 0.00,60.00,Monday
4973,-0.9628851254082982
4826,1763195.8029223146
4827,0.6394499668596154
2,5, 1, 5, 0, 2, 0.00,60.00,Monday
4973,-0.9625373634235687
4826,1760611.0808525559
4827,5.908873390580993e-8
2,5, 1, 5, 0, 3, 0.00,60.00,Monday
4973,-0.963484481904992
4826,1779373.082529035
4827,3.376499080331996e-8
2,5, 1, 5, 0, 4, 0.00,60.00,Monday
4973,-0.9664475957190679
4826,1803425.7973465278
4827,1.524540493846871e-8
2,5, 1, 5, 0, 5, 0.00,60.00,Monday
4973,-0.9704778248665553
4826,1820442.0674381403
4827,4.420144250616431e-8
2,5, 1, 5, 0, 6, 0.00,60.00,Monday
4973,-0.9742893572256917
4826,1839328.8647747744
4827,4.09784206567565e-8
2,5, 1, 5, 0, 7, 0.00,60.00,Monday
4973,-0.9779208314704052
4826,1859001.2215109484
4827,5.586571205640212e-8
2,5, 1, 5, 0, 8, 0.00,60.00,Monday
4973,-1.5151974170342429
4826,0.0
4827,0.0
2,5, 1, 5, 0, 9, 0.00,60.00,Monday
4973,-1.8223492142955478
4826,0.0
4827,0.0
2,5, 1, 5, 0,10, 0.00,60.00,Monday
4973,-1.8458129261550298
4826,0.0
4827,0.0
2,5, 1, 5, 0,11, 0.00,60.00,Monday
4973,-1.858111769948957
4826,0.0
4827,0.0
2,5, 1, 5, 0,12, 0.00,60.00,Monday
4973,-1.8673338759953456
4826,0.0
4827,0.0
2,5, 1, 5, 0,13, 0.00,60.00,Monday
4973,-1.8714608552830228
4826,0.0
4827,0.0
2,5, 1, 5, 0,14, 0.00,60.00,Monday
4973,-1.8678175711561838
4826,0.0
4827,0.0
2,5, 1, 5, 0,15, 0.00,60.00,Monday
4973,-1.8622070163042728
4826,0.0
4827,0.0
2,5, 1, 5, 0,16, 0.00,60.00,Monday
4973,-1.8561624388784635
4826,0.0
4827,0.0
2,5, 1, 5, 0,17, 0.00,60.00,Monday
4973,-1.8545225147046985
4826,0.0
4827,0.0
2,5, 1, 5, 0,18, 0.00,60.00,Monday
4973,-1.8543809685287117
4826,0.0
4827,0.0
2,5, 1, 5, 0,19, 0.00,60.00,Monday
4973,-1.8582846878287603
4826,0.0
4827,0.0
2,5, 1, 5, 0,20, 0.00,60.00,Monday
4973,-1.8513712072707783
4826,0.0
4827,0.0
2,5, 1, 5, 0,21, 0.00,60.00,Monday
4973,-1.8655352168480127
4826,0.0
4827,0.0
2,5, 1, 5, 0,22, 0.00,60.00,Monday
4973,-1.2872324202770469
4826,3045026.6282060195
4827,5.617607712338213e-8
2,5, 1, 5, 0,23, 0.00,60.00,Monday
4973,-1.085545221549168
4826,2173553.553786402
4827,2.7318947104504333e-8
2,5, 1, 5, 0,24, 0.00,60.00,Monday
4973,-1.0733638329163018
4826,2059005.622038428
4827,3.877858034684323e-8
2,6, 1, 6, 0, 1, 0.00,60.00,Tuesday
4973,-1.064418269096665
4826,2244753.7618675155
4827,6.5896860738746458
2,6, 1, 6, 0, 2, 0.00,60.00,Tuesday
4973,-1.0570108307771554
4826,2242201.4707409769
4827,2.7830537874251605e-8
2,6, 1, 6, 0, 3, 0.00,60.00,Tuesday
4973,-1.0492248556253384
4826,2197716.5900399039
4827,4.96243046654854e-8
2,6, 1, 6, 0, 4, 0.00,60.00,Tuesday
4973,-1.0421314842155454
4826,2168429.7223839305
4827,1.0896883395616897e-7
2,6, 1, 6, 0, 5, 0.00,60.00,Tuesday
4973,-1.0358828067760864
4826,2158357.1388300026
4827,7.315748007385992e-8
2,6, 1, 6, 0, 6, 0.00,60.00,Tuesday
4973,-1.0299527876369355
4826,2143421.4379309399
4827,7.38737071515061e-8
2,6, 1, 6, 0, 7, 0.00,60.00,Tuesday
4973,-1.025118736251136
4826,2130779.3864802445
4827,1.2175860319985078e-7
2,6, 1, 6, 0, 8, 0.00,60.00,Tuesday
4973,-1.558887672394341
4826,0.0
4827,0.0
2,6, 1, 6, 0, 9, 0.00,60.00,Tuesday
4973,-1.8951895561241206
4826,0.0
4827,0.0
2,6, 1, 6, 0,10, 0.00,60.00,Tuesday
4973,-1.8878625410859012
4826,0.0
4827,0.0
2,6, 1, 6, 0,11, 0.00,60.00,Tuesday
4973,-1.8698996663077648
4826,0.0
4827,0.0
2,6, 1, 6, 0,12, 0.00,60.00,Tuesday
4973,-1.8460011185591603
4826,0.0
4827,0.0
2,6, 1, 6, 0,13, 0.00,60.00,Tuesday
4973,-1.8013876006224477
4826,0.0
4827,0.0
2,6, 1, 6, 0,14, 0.00,60.00,Tuesday
4973,-1.6690783365603746
4826,0.0
4827,0.0
2,6, 1, 6, 0,15, 0.00,60.00,Tuesday
4973,-1.6313308093707915
4826,0.0
4827,0.0
2,6, 1, 6, 0,16, 0.00,60.00,Tuesday
4973,-1.599146115637736
4826,0.0
4827,0.0
2,6, 1, 6, 0,17, 0.00,60.00,Tuesday
4973,-1.5596075892985606
4826,0.0
4827,0.0
2,6, 1, 6, 0,18, 0.00,60.00,Tuesday
4973,-1.5402435342373356
4826,0.0
4827,0.0
2,6, 1, 6, 0,19, 0.00,60.00,Tuesday
4973,-1.5759545649077847
4826,0.0
4827,0.0
2,6, 1, 6, 0,20, 0.00,60.00,Tuesday
4973,-1.606685560265182
4826,0.0
4827,0.0
2,6, 1, 6, 0,21, 0.00,60.00,Tuesday
4973,-1.6364445851521679
4826,0.0
4827,0.0
2,6, 1, 6, 0,22, 0.00,60.00,Tuesday
4973,-1.1561466386173119
4826,2449775.765935987
4827,8.829374564811587e-8
2,6, 1, 6, 0,23, 0.00,60.00,Tuesday
4973,-0.9889500924529865
4826,1746973.3876779765
4827,4.537810127658304e-8
2,6, 1, 6, 0,24, 0.00,60.00,Tuesday
4973,-0.9794684837578822
4826,1654975.2883020743
4827,4.96243046654854e-9
2,7, 1, 7, 0, 1, 0.00,60.00,Wednesday
4973,-0.9763104122197313
4826,1860788.8298985768
4827,4.614402574329038e-8
2,7, 1, 7, 0, 2, 0.00,60.00,Wednesday
4973,-0.9758085593181276
4826,1887899.2659965333
4827,3.81646714231465e-8
2,7, 1, 7, 0, 3, 0.00,60.00,Wednesday
4973,-0.977921385163308
4826,1932011.8129884224
4827,2.844444679794833e-8
2,7, 1, 7, 0, 4, 0.00,60.00,Wednesday
4973,-0.9821284218196438
4826,1994337.1156683739
4827,6.732534529874101e-8
2,7, 1, 7, 0, 5, 0.00,60.00,Wednesday
4973,-0.9888549321666466
4826,2074605.0791435992
4827,7.898961484897882e-8
2,7, 1, 7, 0, 6, 0.00,60.00,Wednesday
4973,-0.9975201692228348
4826,2154412.4494030338
4827,6.446043698815629e-9
2,7, 1, 7, 0, 7, 0.00,60.00,Wednesday
4973,-1.0060273809354157
4826,2220187.379787784
4827,5.1159076974727216e-8
2,7, 1, 7, 0, 8, 0.00,60.00,Wednesday
4973,-1.6593696712521076
4826,0.0
4827,0.0
2,7, 1, 7, 0, 9, 0.00,60.00,Wednesday
4973,-2.01894522184835
4826,0.0
4827,0.0
2,7, 1, 7, 0,10, 0.00,60.00,Wednesday
4973,-2.0469767562033596
4826,0.0
4827,0.0
2,7, 1, 7, 0,11, 0.00,60.00,Wednesday
4973,-2.0482070886422316
4826,0.0
4827,0.0
2,7, 1, 7, 0,12, 0.00,60.00,Wednesday
4973,-2.0230288122507606
4826,0.0
4827,0.0
2,7, 1, 7, 0,13, 0.00,60.00,Wednesday
4973,-1.9368824427437506
4826,0.0
4827,0.0
2,7, 1, 7, 0,14, 0.00,60.00,Wednesday
4973,-1.8085415627712609
4826,0.0
4827,0.0
2,7, 1, 7, 0,15, 0.00,60.00,Wednesday
4973,-1.7077803173464444
4826,0.0
4827,0.0
2,7, 1, 7, 0,16, 0.00,60.00,Wednesday
4973,-1.5154517373257018
4826,0.0
4827,0.0
2,7, 1, 7, 0,17, 0.00,60.00,Wednesday
4973,-1.4444752056377218
4826,0.0
4827,0.0
2,7, 1, 7, 0,18, 0.00,60.00,Wednesday
4973,-1.4501369157227578
4826,0.0
4827,0.0
2,7, 1, 7, 0,19, 0.00,60.00,Wednesday
4973,-1.495473537744914
4826,0.0
4827,0.0
2,7, 1, 7, 0,20, 0.00,60.00,Wednesday
4973,-1.5260349538960845
4826,0.0
4827,0.0
2,7, 1, 7, 0,21, 0.00,60.00,Wednesday
4973,-1.5482033690141733
4826,0.0
4827,0.0
2,7, 1, 7, 0,22, 0.00,60.00,Wednesday
4973,-1.1202185164986205
4826,2111816.7355821237
4827,4.034916400996735e-8
2,7, 1, 7, 0,23, 0.00,60.00,Wednesday
4973,-0.9734475209525116
4826,1503920.200313269
4827,1.4580336937797256e-8
2,7, 1, 7, 0,24, 0.00,60.00,Wednesday
4973,-0.9649794294764865
4826,1427615.8400529593
4827,3.17697868013056e-8
2,8, 1, 8, 0, 1, 0.00,60.00,Thursday
4973,-0.9620285395480405
4826,1643772.4306523195
4827,4.182108373892593e-8
2,8, 1, 8, 0, 2, 0.00,60.00,Thursday
4973,-0.9598258041638892
4826,1666312.7733941768
4827,2.9314151106518694e-8
2,8, 1, 8, 0, 3, 0.00,60.00,Thursday
4973,-0.9587340644993749
4826,1705373.2847466609
4827,1.9747403712244706e-8
2,8, 1, 8, 0, 4, 0.00,60.00,Thursday
4973,-0.9584733511570562
4826,1742407.6881971139
4827,3.212790034012869e-8
2,8, 1, 8, 0, 5, 0.00,60.00,Thursday
4973,-0.9588150785379098
4826,1769079.945475896
4827,8.236611392931082e-9
2,8, 1, 8, 0, 6, 0.00,60.00,Thursday
4973,-0.959174441520279
4826,1795459.447977213
4827,2.9416469260468149e-8
2,8, 1, 8, 0, 7, 0.00,60.00,Thursday
4973,-0.9604455143385594
4826,1812056.3509093663
4827,7.5203843152849e-8
2,8, 1, 8, 0, 8, 0.00,60.00,Thursday
4973,-1.4754152803317278
4826,0.0
4827,0.0
2,8, 1, 8, 0, 9, 0.00,60.00,Thursday
4973,-1.7866854199594529
4826,0.0
4827,0.0
2,8, 1, 8, 0,10, 0.00,60.00,Thursday
4973,-1.7883090612125654
4826,0.0
4827,0.0
2,8, 1, 8, 0,11, 0.00,60.00,Thursday
4973,-1.77862076690057
4826,0.0
4827,0.0
2,8, 1, 8, 0,12, 0.00,60.00,Thursday
4973,-1.757224191803227
4826,0.0
4827,0.0
2,8, 1, 8, 0,13, 0.00,60.00,Thursday
4973,-1.7174748524307664
4826,0.0
4827,0.0
2,8, 1, 8, 0,14, 0.00,60.00,Thursday
4973,-1.669130063427824
4826,0.0
4827,0.0
2,8, 1, 8, 0,15, 0.00,60.00,Thursday
4973,-1.6241704604185526
4826,0.0
4827,0.0
2,8, 1, 8, 0,16, 0.00,60.00,Thursday
4973,-1.5835678943569092
4826,0.0
4827,0.0
2,8, 1, 8, 0,17, 0.00,60.00,Thursday
4973,-1.5443291330367904
4826,0.0
4827,0.0
2,8, 1, 8, 0,18, 0.00,60.00,Thursday
4973,-1.5631237222975765
4826,0.0
4827,0.0
2,8, 1, 8, 0,19, 0.00,60.00,Thursday
4973,-1.5945658571607458
4826,0.0
4827,0.0
2,8, 1, 8, 0,20, 0.00,60.00,Thursday
4973,-1.6101428170731816
4826,0.0
4827,0.0
2,8, 1, 8, 0,21, 0.00,60.00,Thursday
4973,-1.6225711908383467
4826,0.0
4827,0.0
2,8, 1, 8, 0,22, 0.00,60.00,Thursday
4973,-1.141227437792959
4826,2280686.626364601
4827,5.239185085770259e-8
2,8, 1, 8, 0,23, 0.00,60.00,Thursday
4973,-0.9745921724867618
4826,1560774.1081707958
4827,5.105675882077776e-8
2,8, 1, 8, 0,24, 0.00,60.00,Thursday
4973,-0.9619553285354626
4826,1485143.907952807
4827,1.3864109860151075e-8
2,9, 1, 9, 0, 1, 0.00,60.00,Friday
4973,-0.9580947601453447
4826,1716885.411480664
4827,4.103128503629705e-8
2,9, 1, 9, 0, 2, 0.00,60.00,Friday
4973,-0.9578976686238475
4826,1759108.3286009809
4827,1.9184653865522706e-8
2,9, 1, 9, 0, 3, 0.00,60.00,Friday
4973,-0.9588077502420193
4826,1782075.8951798636
4827,7.699441084696446e-8
2,9, 1, 9, 0, 4, 0.00,60.00,Friday
4973,-0.9587370764075921
4826,1786689.6992444713
4827,3.263949110987596e-8
2,9, 1, 9, 0, 5, 0.00,60.00,Friday
4973,-0.9578830078045093
4826,1789694.3879393086
4827,4.2666670196922499e-8
2,9, 1, 9, 0, 6, 0.00,60.00,Friday
4973,-0.9572170383320903
4826,1797217.88765545
4827,5.182414497539867e-8
2,9, 1, 9, 0, 7, 0.00,60.00,Friday
4973,-0.9572815330674063
4826,1803546.652407204
4827,7.955236469570082e-8
2,9, 1, 9, 0, 8, 0.00,60.00,Friday
4973,-1.464877469254483
4826,0.0
4827,0.0
2,9, 1, 9, 0, 9, 0.00,60.00,Friday
4973,-1.7819618781285938
4826,0.0
4827,0.0
2,9, 1, 9, 0,10, 0.00,60.00,Friday
4973,-1.8014345980836093
4826,0.0
4827,0.0
2,9, 1, 9, 0,11, 0.00,60.00,Friday
4973,-1.8083658951094693
4826,0.0
4827,0.0
2,9, 1, 9, 0,12, 0.00,60.00,Friday
4973,-1.810258557545449
4826,0.0
4827,0.0
2,9, 1, 9, 0,13, 0.00,60.00,Friday
4973,-1.8116654613394703
4826,0.0
4827,0.0
2,9, 1, 9, 0,14, 0.00,60.00,Friday
4973,-1.8074208751533
4826,0.0
4827,0.0
2,9, 1, 9, 0,15, 0.00,60.00,Friday
4973,-1.8068996248959608
4826,0.0
4827,0.0
2,9, 1, 9, 0,16, 0.00,60.00,Friday
4973,-1.8064021677285967
4826,0.0
4827,0.0
2,9, 1, 9, 0,17, 0.00,60.00,Friday
4973,-1.8127399263659583
4826,0.0
4827,0.0
2,9, 1, 9, 0,18, 0.00,60.00,Friday
4973,-1.8252553599632587
4826,0.0
4827,0.0
2,9, 1, 9, 0,19, 0.00,60.00,Friday
4973,-1.8352231177182968
4826,0.0
4827,0.0
2,9, 1, 9, 0,20, 0.00,60.00,Friday
4973,-1.828732640140141
4826,0.0
4827,0.0
2,9, 1, 9, 0,21, 0.00,60.00,Friday
4973,-1.8301750541057543
4826,0.0
4827,0.0
2,9, 1, 9, 0,22, 0.00,60.00,Friday
4973,-1.2554482415392326
4826,2899019.6292332706
4827,1.91982962860493e-8
2,9, 1, 9, 0,23, 0.00,60.00,Friday
4973,-1.0608964759563995
4826,2043683.466329168
4827,3.7346126191550869e-8
2,9, 1, 9, 0,24, 0.00,60.00,Friday
4973,-1.0479481405069203
4826,1907160.8356019669
4827,2.588649294921197e-8
2,10, 1,10, 0, 1, 0.00,60.00,Saturday
4973,-1.040869933692903
4826,2068012.1647550737
4827,2.258993872513721
2,10, 1,10, 0, 2, 0.00,60.00,Saturday
4973,-1.0356151279297046
4826,2048100.3944916828
4827,1.1254996934439987e-7
2,10, 1,10, 0, 3, 0.00,60.00,Saturday
4973,-1.030526662867492
4826,2013621.1494334997
4827,7.418066161335446e-8
2,10, 1,10, 0, 4, 0.00,60.00,Saturday
4973,-1.0258954243028816
4826,1990085.875969844
4827,4.3792169890366497e-8
2,10, 1,10, 0, 5, 0.00,60.00,Saturday
4973,-1.0212313201266042
4826,1978363.4348754814
4827,1.3096723705530167e-8
2,10, 1,10, 0, 6, 0.00,60.00,Saturday
4973,-1.0171607002259245
4826,1974695.3865279477
4827,5.20799403602723e-8
2,10, 1,10, 0, 7, 0.00,60.00,Saturday
4973,-1.0138698795998274
4826,1970013.7168311857
4827,1.1766587704187259e-7
2,10, 1,10, 0, 8, 0.00,60.00,Saturday
4973,-1.011527941267402
4826,1959051.3262755133
4827,4.692651600635145e-8
2,10, 1,10, 0, 9, 0.00,60.00,Saturday
4973,-1.009555764740003
4826,2012025.9531919284
4827,4.072262527188286e-8
2,10, 1,10, 0,10, 0.00,60.00,Saturday
4973,-1.0059321137571867
4826,1977015.687722817
4827,7.878497854107991e-9
2,10, 1,10, 0,11, 0.00,60.00,Saturday
4973,-1.0010020376697902
4826,1968138.0829264955
4827,7.909193300292827e-8
2,10, 1,10, 0,12, 0.00,60.00,Saturday
4973,-0.9919701134464612
4826,1863390.2799403826
4827,0.0
2,10, 1,10, 0,13, 0.00,60.00,Saturday
4973,-0.979699891086935
4826,1735746.4288117418
4827,1.836610863392707e-8
2,10, 1,10, 0,14, 0.00,60.00,Saturday
4973,-0.9807621036096577
4826,1676559.2776883892
4827,3.197442310920451e-8
2,10, 1,10, 0,15, 0.00,60.00,Saturday
4973,-0.9720121262928425
4826,1518402.2711194284
4827,8.011511454242282e-8
2,10, 1,10, 0,16, 0.00,60.00,Saturday
4973,-0.9537731732010886
4826,1409556.4239148678
4827,2.0617108020815068e-8
2,10, 1,10, 0,17, 0.00,60.00,Saturday
4973,-0.9323153263664908
4826,1408780.459545164
4827,2.772821972030215e-8
2,10, 1,10, 0,18, 0.00,60.00,Saturday
4973,-0.8984617929250529
4826,1295996.3971441475
4827,3.309992280264851e-8
2,10, 1,10, 0,19, 0.00,60.00,Saturday
4973,-0.9105643001616834
4826,1408628.322056951
4827,4.829416866414249e-8
2,10, 1,10, 0,20, 0.00,60.00,Saturday
4973,-0.9131842223393142
4826,1348456.1606316593
4827,1.8494006326363889e-8
2,10, 1,10, 0,21, 0.00,60.00,Saturday
4973,-0.9124586337911232
4826,1328899.639567583
4827,2.997921910719015e-8
2,10, 1,10, 0,22, 0.00,60.00,Saturday
4973,-0.9071460400866714
4826,1312895.4117189344
4827,3.724380803760141e-8
2,10, 1,10, 0,23, 0.00,60.00,Saturday
4973,-0.9006566376491134
4826,1314084.6149095712
4827,4.865228220296558e-8
2,10, 1,10, 0,24, 0.00,60.00,Saturday
4973,-0.8954518153506768
4826,1298577.6545337383
4827,4.1234216041630137e-8
2,11, 1,11, 0, 1, 0.00,60.00,Sunday
4973,-0.8980751987306715
4826,1510136.06511728
4827,4.763965729840233e-8
2,11, 1,11, 0, 2, 0.00,60.00,Sunday
4973,-0.905183418945795
4826,1587279.8330595296
4827,9.669065548223444e-9
2,11, 1,11, 0, 3, 0.00,60.00,Sunday
4973,-0.913793080034014
4826,1632834.0525624599
4827,2.0258994481991978e-8
2,11, 1,11, 0, 4, 0.00,60.00,Sunday
4973,-0.919769696909409
4826,1657698.306025884
4827,7.842686500225682e-8
2,11, 1,11, 0, 5, 0.00,60.00,Sunday
4973,-0.9236650976983842
4826,1685719.5762666714
4827,3.8471625884994867e-8
2,11, 1,11, 0, 6, 0.00,60.00,Sunday
4973,-0.9284561656147734
4826,1718904.7646858025
4827,3.3304559110547419e-8
2,11, 1,11, 0, 7, 0.00,60.00,Sunday
4973,-0.9344175546134173
4826,1751539.3734800686
4827,2.808633325912524e-8
2,11, 1,11, 0, 8, 0.00,60.00,Sunday
4973,-0.9388784455175285
4826,1751187.3672195348
4827,4.89984586238279e-8
2,11, 1,11, 0, 9, 0.00,60.00,Sunday
4973,-0.940047030158454
4826,1741806.2515433627
4827,4.348521542851813e-8
2,11, 1,11, 0,10, 0.00,60.00,Sunday
4973,-0.9365175283399567
4826,1669710.5021900999
4827,3.043965079996269e-8
2,11, 1,11, 0,11, 0.00,60.00,Sunday
4973,-0.9313329584683705
4826,1675751.363892179
4827,5.596803021035157e-8
2,11, 1,11, 0,12, 0.00,60.00,Sunday
4973,-0.927158316758899
4826,1642084.9609407122
4827,2.5733015718287789e-8
2,11, 1,11, 0,13, 0.00,60.00,Sunday
4973,-0.9243447471860082
4826,1615315.3860947258
4827,1.928697201947216e-8
2,11, 1,11, 0,14, 0.00,60.00,Sunday
4973,-0.9219763880071761
4826,1598785.297670833
4827,4.84988049720414e-8
2,11, 1,11, 0,15, 0.00,60.00,Sunday
4973,-0.9193690403704209
4826,1511083.8473416898
4827,3.693685357575305e-8
2,11, 1,11, 0,16, 0.00,60.00,Sunday
4973,-0.9163273363188428
4826,1482975.020909753
4827,1.0231815394945443e-8
2,11, 1,11, 0,17, 0.00,60.00,Sunday
4973,-0.9152921929359729
4826,1525689.7501373087
4827,2.2868107407703066e-8
2,11, 1,11, 0,18, 0.00,60.00,Sunday
4973,-0.9159934705260147
4826,1521091.448171915
4827,6.430695975723211e-8
2,11, 1,11, 0,19, 0.00,60.00,Sunday
4973,-0.9148349739779389
4826,1504024.7799347838
4827,2.9058355721645058e-8
2,11, 1,11, 0,20, 0.00,60.00,Sunday
4973,-0.9129499542702738
4826,1366002.0801310477
4827,2.1717028175771703e-8
2,11, 1,11, 0,21, 0.00,60.00,Sunday
4973,-0.9113102939092664
4826,1314148.7513651658
4827,7.213429853436537e-9
2,11, 1,11, 0,22, 0.00,60.00,Sunday
4973,-0.909227549346957
4826,1299080.5815089644
4827,4.686171450885013e-8
2,11, 1,11, 0,23, 0.00,60.00,Sunday
4973,-0.9091341587439041
4826,1290357.650197523
4827,3.043965079996269e-8
2,11, 1,11, 0,24, 0.00,60.00,Sunday
4973,-0.9094025428197552
4826,1233239.4768662966
4827,1.7701040633255617e-8
2,12, 1,12, 0, 1, 0.00,60.00,Monday
4973,-0.9113562230351531
4826,1379804.3607459777
4827,3.9893421899250828e-8
2,12, 1,12, 0, 2, 0.00,60.00,Monday
4973,-0.9136217142482728
4826,1396124.4707036883
4827,2.42494024860207e-8
2,12, 1,12, 0, 3, 0.00,60.00,Monday
4973,-0.9166594945762188
4826,1433593.1641701596
4827,2.1947244022157976e-8
2,12, 1,12, 0, 4, 0.00,60.00,Monday
4973,-0.9191670692696624
4826,1467773.1646574038
4827,4.9266191126662309e-8
2,12, 1,12, 0, 5, 0.00,60.00,Monday
4973,-0.9202433614699759
4826,1499872.3515491724
4827,3.069544618483633e-9
2,12, 1,12, 0, 6, 0.00,60.00,Monday
4973,-0.9197305629135592
4826,1529569.8038666738
4827,4.8754600356915037e-8
2,12, 1,12, 0, 7, 0.00,60.00,Monday
4973,-0.9181268389357411
4826,1551282.843639214
4827,7.008793545537628e-9
2,12, 1,12, 0, 8, 0.00,60.00,Monday
4973,-1.389604718002412
4826,0.0
4827,0.0
2,12, 1,12, 0, 9, 0.00,60.00,Monday
4973,-1.6547606079212605
4826,0.0
4827,0.0
2,12, 1,12, 0,10, 0.00,60.00,Monday
4973,-1.6612295514621954
4826,0.0
4827,0.0
2,12, 1,12, 0,11, 0.00,60.00,Monday
4973,-1.664746544571124
4826,0.0
4827,0.0
2,12, 1,12, 0,12, 0.00,60.00,Monday
4973,-1.672094934979687
4826,0.0
4827,0.0
2,12, 1,12, 0,13, 0.00,60.00,Monday
4973,-1.6759248853733975
4826,0.0
4827,0.0
2,12, 1,12, 0,14, 0.00,60.00,Monday
4973,-1.682592741409059
4826,0.0
4827,0.0
2,12, 1,12, 0,15, 0.00,60.00,Monday
4973,-1.6823503915327605
4826,0.0
4827,0.0
2,12, 1,12, 0,16, 0.00,60.00,Monday
4973,-1.675767927339035
4826,0.0
4827,0.0
2,12, 1,12, 0,17, 0.00,60.00,Monday
4973,-1.666965606615799
4826,0.0
4827,0.0
2,12, 1,12, 0,18, 0.00,60.00,Monday
4973,-1.6596595709520404
4826,0.0
4827,0.0
2,12, 1,12, 0,19, 0.00,60.00,Monday
4973,-1.6607372590960177
4826,0.0
4827,0.0
2,12, 1,12, 0,20, 0.00,60.00,Monday
4973,-1.65575742576623
4826,0.0
4827,0.0
2,12, 1,12, 0,21, 0.00,60.00,Monday
4973,-1.6599380908289899
4826,0.0
4827,0.0
2,12, 1,12, 0,22, 0.00,60.00,Monday
4973,-1.1640393279158859
4826,2386650.6750393218
4827,1.8067680684907829e-8
2,12, 1,12, 0,23, 0.00,60.00,Monday
4973,-0.9966810299772972
4826,1683075.772141505
4827,4.972662281943485e-8
2,12, 1,12, 0,24, 0.00,60.00,Monday
4973,-0.9853175077629972
4826,1565687.3901660359
4827,4.885691851086449e-8
2,13, 1,13, 0, 1, 0.00,60.00,Tuesday
4973,-0.9785494756077086
4826,1740784.1353976387
4827,5.389933456070778
2,13, 1,13, 0, 2, 0.00,60.00,Tuesday
4973,-0.9728045598414044
4826,1729737.0840533393
4827,8.446363608527463e-8
2,13, 1,13, 0, 3, 0.00,60.00,Tuesday
4973,-0.9681699092383173
4826,1724189.737516176
4827,7.116227607184556e-8
2,13, 1,13, 0, 4, 0.00,60.00,Tuesday
4973,-0.9639856830462992
4826,1718818.7940538265
4827,4.496882866078522e-8
2,13, 1,13, 0, 5, 0.00,60.00,Tuesday
4973,-0.9599550808558068
4826,1717461.8411562544
4827,9.92486093309708e-9
2,13, 1,13, 0, 6, 0.00,60.00,Tuesday
4973,-0.956169742541404
4826,1721096.9883154119
4827,5.525180313270539e-8
2,13, 1,13, 0, 7, 0.00,60.00,Tuesday
4973,-0.953811453911293
4826,1724362.3235695027
4827,8.615188562544063e-8