Program Version,EnergyPlus, Version 8.7.0-78a111df4a, YMD=2019.05.28 05:48
1,5,Environment Title[],Latitude[deg],Longitude[deg],Time Zone[],Elevation[m]
2,6,Day of Simulation[],Month[],Day of Month[],DST Indicator[1=yes 0=no],Hour[],StartMinute[],EndMinute[],DayType
3,3,Cumulative Day of Simulation[],Month[],Day of Month[],DST Indicator[1=yes 0=no],DayType  ! When Daily Report Variables Requested
4,2,Cumulative Days of Simulation[],Month[]  ! When Monthly Report Variables Requested
5,1,Cumulative Days of Simulation[] ! When Run Period Report Variables Requested
4826,1,BEDROOM2.2,Zone Ideal Loads Zone Total Heating Energy [J] !Hourly
4827,1,BEDROOM2.2,Zone Ideal Loads Zone Total Cooling Energy [J] !Hourly
4973,1,BEDROOM2.2,Zone Thermal Comfort Fanger Model PMV [] !Hourly
End of Data Dictionary
1,RUNPERIOD,  29.58, 106.47,   8.00, 259.10
2,1, 1, 1, 0, 1, 0.00,60.00,Thursday
4973,-1.0982810382342856
4826,2486508.7399607377
4827,5.9399719082813887e-8
2,1, 1, 1, 0, 2, 0.00,60.00,Thursday
4973,-1.0901631674595334
4826,2491415.1660304896
4827,5.2796167437918487e-8
2,1, 1, 1, 0, 3, 0.00,60.00,Thursday
4973,-1.0819342358435405
4826,2424819.896637772
4827,1.2554437489598059e-7
2,1, 1, 1, 0, 4, 0.00,60.00,Thursday
4973,-1.0750613151760589
4826,2390818.427975896
4827,8.952838470577263e-8
2,1, 1, 1, 0, 5, 0.00,60.00,Thursday
4973,-1.0712993358639947
4826,2405427.852374338
4827,7.070184437907301e-8
2,1, 1, 1, 0, 6, 0.00,60.00,Thursday
4973,-1.0707023526791769
4826,2425781.6953458988
4827,9.822542779147625e-8
2,1, 1, 1, 0, 7, 0.00,60.00,Thursday
4973,-1.0722267789170508
4826,2441330.9796073336
4827,5.9549165598582479e-8
2,1, 1, 1, 0, 8, 0.00,60.00,Thursday
4973,-1.7018042618823679
4826,0.0
4827,0.0
2,1, 1, 1, 0, 9, 0.00,60.00,Thursday
4973,-2.1018768186904848
4826,0.0
4827,0.0
2,1, 1, 1, 0,10, 0.00,60.00,Thursday
4973,-2.139894248001395
4826,0.0
4827,0.0
2,1, 1, 1, 0,11, 0.00,60.00,Thursday
4973,-2.147217791375806
4826,0.0
4827,0.0
2,1, 1, 1, 0,12, 0.00,60.00,Thursday
4973,-2.1436779669484018
4826,0.0
4827,0.0
2,1, 1, 1, 0,13, 0.00,60.00,Thursday
4973,-2.1275224043159688
4826,0.0
4827,0.0
2,1, 1, 1, 0,14, 0.00,60.00,Thursday
4973,-2.0932907350508627
4826,0.0
4827,0.0
2,1, 1, 1, 0,15, 0.00,60.00,Thursday
4973,-2.04913265866087
4826,0.0
4827,0.0
2,1, 1, 1, 0,16, 0.00,60.00,Thursday
4973,-1.9914232615464958
4826,0.0
4827,0.0
2,1, 1, 1, 0,17, 0.00,60.00,Thursday
4973,-1.9242540803143032
4826,0.0
4827,0.0
2,1, 1, 1, 0,18, 0.00,60.00,Thursday
4973,-1.8647143287561643
4826,0.0
4827,0.0
2,1, 1, 1, 0,19, 0.00,60.00,Thursday
4973,-1.8167702380421167
4826,0.0
4827,0.0
2,1, 1, 1, 0,20, 0.00,60.00,Thursday
4973,-1.7889780003953418
4826,0.0
4827,0.0
2,1, 1, 1, 0,21, 0.00,60.00,Thursday
4973,-1.8278967447588679
4826,0.0
4827,0.0
2,1, 1, 1, 0,22, 0.00,60.00,Thursday
4973,-1.2964714319546278
4826,3029724.218580176
4827,1.2892087397631258e-8
2,1, 1, 1, 0,23, 0.00,60.00,Thursday
4973,-1.1096932914005647
4826,2384224.247227609
4827,9.81231096375268e-8
2,1, 1, 1, 0,24, 0.00,60.00,Thursday
4973,-1.1041403034599986
4826,2273845.643160974
4827,6.108393790782429e-8
2,2, 1, 2, 0, 1, 0.00,60.00,Friday
4973,-1.1007179531509246
4826,2459479.17025455
4827,8.768169705449096e-8
2,2, 1, 2, 0, 2, 0.00,60.00,Friday
4973,-1.0980559288103203
4826,2452235.1477584869
4827,6.69160726829432e-8
2,2, 1, 2, 0, 3, 0.00,60.00,Friday
4973,-1.0962962014334313
4826,2451028.7248762089
4827,2.7625901566352696e-8
2,2, 1, 2, 0, 4, 0.00,60.00,Friday
4973,-1.0926237980038778
4826,2442799.3556677785
4827,5.99584382143803e-8
2,2, 1, 2, 0, 5, 0.00,60.00,Friday
4973,-1.0881954666927272
4826,2428061.8062328358
4827,4.328057912061922e-8
2,2, 1, 2, 0, 6, 0.00,60.00,Friday
4973,-1.083766465087526
4826,2417272.27798368
4827,2.609112925711088e-8
2,2, 1, 2, 0, 7, 0.00,60.00,Friday
4973,-1.0795262664456694
4826,2402979.5834056765
4827,8.973302101367153e-8
2,2, 1, 2, 0, 8, 0.00,60.00,Friday
4973,-1.67010188425877
4826,0.0
4827,0.0
2,2, 1, 2, 0, 9, 0.00,60.00,Friday
4973,-2.023679724192558
4826,0.0
4827,0.0
2,2, 1, 2, 0,10, 0.00,60.00,Friday
4973,-2.0054460792250845
4826,0.0
4827,0.0
2,2, 1, 2, 0,11, 0.00,60.00,Friday
4973,-1.9890587687295296
4826,0.0
4827,0.0
2,2, 1, 2, 0,12, 0.00,60.00,Friday
4973,-1.9773101060550853
4826,0.0
4827,0.0
2,2, 1, 2, 0,13, 0.00,60.00,Friday
4973,-1.9640075683383725
4826,0.0
4827,0.0
2,2, 1, 2, 0,14, 0.00,60.00,Friday
4973,-1.9498224586467923
4826,0.0
4827,0.0
2,2, 1, 2, 0,15, 0.00,60.00,Friday
4973,-1.9238750914175243
4826,0.0
4827,0.0
2,2, 1, 2, 0,16, 0.00,60.00,Friday
4973,-1.8892681016908544
4826,0.0
4827,0.0
2,2, 1, 2, 0,17, 0.00,60.00,Friday
4973,-1.867833953597657
4826,0.0
4827,0.0
2,2, 1, 2, 0,18, 0.00,60.00,Friday
4973,-1.8901407193879876
4826,0.0
4827,0.0
2,2, 1, 2, 0,19, 0.00,60.00,Friday
4973,-1.9316319283992749
4826,0.0
4827,0.0
2,2, 1, 2, 0,20, 0.00,60.00,Friday
4973,-1.9563612120835499
4826,0.0
4827,0.0
2,2, 1, 2, 0,21, 0.00,60.00,Friday
4973,-1.9824422943146492
4826,0.0
4827,0.0
2,2, 1, 2, 0,22, 0.00,60.00,Friday
4973,-1.342259091204154
4826,3404031.5290111566
4827,7.980816008057446e-9
2,2, 1, 2, 0,23, 0.00,60.00,Friday
4973,-1.114926554739814
4826,2398644.860960323
4827,3.8676262192893776e-8
2,2, 1, 2, 0,24, 0.00,60.00,Friday
4973,-1.0967916015359998
4826,2276818.8939846416
4827,2.701199264265597e-8
2,3, 1, 3, 0, 1, 0.00,60.00,Saturday
4973,-1.0888646976795878
4826,2476600.4898955349
4827,7.769792566911996e-8
2,3, 1, 3, 0, 2, 0.00,60.00,Saturday
4973,-1.0857992025897155
4826,2506039.2011581307
4827,1.6575540939811618e-8
2,3, 1, 3, 0, 3, 0.00,60.00,Saturday
4973,-1.0874618032907293
4826,2515271.1590018237
4827,7.561311576864682e-8
2,3, 1, 3, 0, 4, 0.00,60.00,Saturday
4973,-1.08887161729252
4826,2510289.7482000777
4827,1.0109033610206098e-7
2,3, 1, 3, 0, 5, 0.00,60.00,Saturday
4973,-1.0887657709632184
4826,2495640.200122068
4827,5.7707438827492299e-8
2,3, 1, 3, 0, 6, 0.00,60.00,Saturday
4973,-1.0871341830565529
4826,2466400.988015135
4827,7.817106961738318e-8
2,3, 1, 3, 0, 7, 0.00,60.00,Saturday
4973,-1.0837244493050833
4826,2419378.417365855
4827,1.0160192687180825e-7
2,3, 1, 3, 0, 8, 0.00,60.00,Saturday
4973,-1.0784474921309229
4826,2368269.7117436269
4827,6.999584911682177e-8
2,3, 1, 3, 0, 9, 0.00,60.00,Saturday
4973,-1.0739706918015624
4826,2369903.404145865
4827,1.780335878720507e-8
2,3, 1, 3, 0,10, 0.00,60.00,Saturday
4973,-1.0692852419318313
4826,2317667.2564505545
4827,7.602238838444464e-8
2,3, 1, 3, 0,11, 0.00,60.00,Saturday
4973,-1.065421441451107
4826,2325776.7487096807
4827,8.349161362275481e-8
2,3, 1, 3, 0,12, 0.00,60.00,Saturday
4973,-1.062306692343092
4826,2281433.142253388
4827,6.752998160663992e-9
2,3, 1, 3, 0,13, 0.00,60.00,Saturday
4973,-1.0586371872844032
4826,2241506.021489339
4827,1.759872247930616e-8
2,3, 1, 3, 0,14, 0.00,60.00,Saturday
4973,-1.0547707113450236
4826,2205148.847904062
4827,6.722302714479156e-8
2,3, 1, 3, 0,15, 0.00,60.00,Saturday
4973,-1.0500747750201856
4826,2136581.222575401
4827,9.096083886106499e-8
2,3, 1, 3, 0,16, 0.00,60.00,Saturday
4973,-1.0438627581534466
4826,2118518.5775786705
4827,8.973302101367153e-8
2,3, 1, 3, 0,17, 0.00,60.00,Saturday
4973,-1.0390313859226133
4826,2147619.604161391
4827,1.1132215149700642e-7
2,3, 1, 3, 0,18, 0.00,60.00,Saturday
4973,-1.034689012609662
4826,2129758.05735532
4827,1.5552359400317074e-8
2,3, 1, 3, 0,19, 0.00,60.00,Saturday
4973,-1.028312861645889
4826,2096230.8948796504
4827,1.5143086784519256e-8
2,3, 1, 3, 0,20, 0.00,60.00,Saturday
4973,-1.0211815600150183
4826,1954332.824240602
4827,8.405436346947681e-8
2,3, 1, 3, 0,21, 0.00,60.00,Saturday
4973,-1.0133760675837107
4826,1883490.6571370699
4827,3.693685357575305e-8
2,3, 1, 3, 0,22, 0.00,60.00,Saturday
4973,-1.0054355844711332
4826,1856231.0470892024
4827,3.079776433878578e-8
2,3, 1, 3, 0,23, 0.00,60.00,Saturday
4973,-0.999143420181398
4826,1843405.9139434153
4827,1.5296564015443438e-8
2,3, 1, 3, 0,24, 0.00,60.00,Saturday
4973,-0.9931304350821769
4826,1776665.261257106
4827,4.583853296935558e-8
2,4, 1, 4, 0, 1, 0.00,60.00,Sunday
4973,-0.9895951122584654
4826,1913093.5864596624
4827,6.5584154649286579
2,4, 1, 4, 0, 2, 0.00,60.00,Sunday
4973,-0.9853678536112507
4826,1913398.2168326085
4827,3.1309355108533057e-8
2,4, 1, 4, 0, 3, 0.00,60.00,Sunday
4973,-0.9822924397696145
4826,1894656.504219619
4827,9.270024747820571e-8
2,4, 1, 4, 0, 4, 0.00,60.00,Sunday
4973,-0.9792354122986602
4826,1881490.1315591182
4827,7.7454842539737e-8
2,4, 1, 4, 0, 5, 0.00,60.00,Sunday
4973,-0.9758531223789236
4826,1872513.29820093
4827,7.397602530545555e-8
2,4, 1, 4, 0, 6, 0.00,60.00,Sunday
4973,-0.9722278516897809
4826,1867868.4841082879
4827,1.759872247930616e-8
2,4, 1, 4, 0, 7, 0.00,60.00,Sunday
4973,-0.9690477165797897
4826,1862047.1093065956
4827,1.9747403712244706e-8
2,4, 1, 4, 0, 8, 0.00,60.00,Sunday
4973,-0.9665550324282483
4826,1851451.2489873744
4827,4.0153054214897568e-8
2,4, 1, 4, 0, 9, 0.00,60.00,Sunday
4973,-0.9661132572434656
4826,1891014.0225233422
4827,2.5374902179464699e-8
2,4, 1, 4, 0,10, 0.00,60.00,Sunday
4973,-0.9662174808330849
4826,1864341.3270187909
4827,3.857394403894432e-8
2,4, 1, 4, 0,11, 0.00,60.00,Sunday
4973,-0.9666692032867843
4826,1894484.876022563
4827,1.1009433364961296e-7
2,4, 1, 4, 0,12, 0.00,60.00,Sunday
4973,-0.9691771553894808
4826,1861751.2766459238
4827,4.092726157978177e-9
2,4, 1, 4, 0,13, 0.00,60.00,Sunday
4973,-0.9702808348367046
4826,1820609.0622259714
4827,5.20799403602723e-8
2,4, 1, 4, 0,14, 0.00,60.00,Sunday
4973,-0.9706288131225457
4826,1766308.6396667679
4827,1.7701040633255617e-8
2,4, 1, 4, 0,15, 0.00,60.00,Sunday
4973,-0.9677394898458673
4826,1659057.893508213
4827,2.6295765565009789e-8
2,4, 1, 4, 0,16, 0.00,60.00,Sunday
4973,-0.9599622657698694
4826,1605734.3613077957
4827,1.944044925039634e-8
2,4, 1, 4, 0,17, 0.00,60.00,Sunday
4973,-0.9518677457384099
4826,1639145.959616837
4827,3.34580363414716e-8
2,4, 1, 4, 0,18, 0.00,60.00,Sunday
4973,-0.9474932691702733
4826,1649648.8073190863
4827,3.141167326248251e-8
2,4, 1, 4, 0,19, 0.00,60.00,Sunday
4973,-0.9435067986517518
4826,1660753.6398767394
4827,4.072262527188286e-8
2,4, 1, 4, 0,20, 0.00,60.00,Sunday
4973,-0.9394349747776519
4826,1562331.5162931579
4827,3.9315750655077866e-8
2,4, 1, 4, 0,21, 0.00,60.00,Sunday
4973,-0.9370455225502163
4826,1527473.2975088706
4827,3.5913672036258507e-8
2,4, 1, 4, 0,22, 0.00,60.00,Sunday
4973,-0.9348378606637784
4826,1522330.5439316049
4827,7.9143092079903e-8
2,4, 1, 4, 0,23, 0.00,60.00,Sunday
4973,-0.9326817574257347
4826,1517274.3640227374
4827,4.1029579733731228e-8
2,4, 1, 4, 0,24, 0.00,60.00,Sunday
4973,-0.930412991414125
4826,1451256.180221733
4827,1.7394086171407253e-9
2,5, 1, 5, 0, 1, 0.00,60.00,Monday
4973,-0.9304862465071342
4826,1584840.1612770195
4827,0.5840596304699375
2,5, 1, 5, 0, 2, 0.00,60.00,Monday
4973,-0.9296935804551866
4826,1580509.3386173133
4827,6.819504960731138e-8
2,5, 1, 5, 0, 3, 0.00,60.00,Monday
4973,-0.9299298387802284
4826,1595909.148838513
4827,4.604316927725449e-9
2,5, 1, 5, 0, 4, 0.00,60.00,Monday
4973,-0.9319551507538362
4826,1614210.750846277
4827,5.4637894209008667e-8
2,5, 1, 5, 0, 5, 0.00,60.00,Monday
4973,-0.9351761987429488
4826,1626737.0927454006
4827,2.5988811103161426e-8
2,5, 1, 5, 0, 6, 0.00,60.00,Monday
4973,-0.9380708074271937
4826,1640480.8748332512
4827,4.68105554318754e-8
2,5, 1, 5, 0, 7, 0.00,60.00,Monday
4973,-0.9407747002691806
4826,1654882.3880483793
4827,1.2278178473934532e-9
2,5, 1, 5, 0, 8, 0.00,60.00,Monday
4973,-1.456962789321811
4826,0.0
4827,0.0
2,5, 1, 5, 0, 9, 0.00,60.00,Monday
4973,-1.7463208953393024
4826,0.0
4827,0.0
2,5, 1, 5, 0,10, 0.00,60.00,Monday
4973,-1.7686034893144392
4826,0.0
4827,0.0
2,5, 1, 5, 0,11, 0.00,60.00,Monday
4973,-1.7809903508743233
4826,0.0
4827,0.0
2,5, 1, 5, 0,12, 0.00,60.00,Monday
4973,-1.790654135142014
4826,0.0
4827,0.0
2,5, 1, 5, 0,13, 0.00,60.00,Monday
4973,-1.7955416395151396
4826,0.0
4827,0.0
2,5, 1, 5, 0,14, 0.00,60.00,Monday
4973,-1.7932560436272669
4826,0.0
4827,0.0
2,5, 1, 5, 0,15, 0.00,60.00,Monday
4973,-1.7888962092216248
4826,0.0
4827,0.0
2,5, 1, 5, 0,16, 0.00,60.00,Monday
4973,-1.782515784765125
4826,0.0
4827,0.0
2,5, 1, 5, 0,17, 0.00,60.00,Monday
4973,-1.7803540252542159
4826,0.0
4827,0.0
2,5, 1, 5, 0,18, 0.00,60.00,Monday
4973,-1.7798927222538919
4826,0.0
4827,0.0
2,5, 1, 5, 0,19, 0.00,60.00,Monday
4973,-1.7819433478043619
4826,0.0
4827,0.0
2,5, 1, 5, 0,20, 0.00,60.00,Monday
4973,-1.7745311953559522
4826,0.0
4827,0.0
2,5, 1, 5, 0,21, 0.00,60.00,Monday
4973,-1.7887071602148593
4826,0.0
4827,0.0
2,5, 1, 5, 0,22, 0.00,60.00,Monday
4973,-1.2381532405450256
4826,2799308.6248430677
4827,2.8768454285454937e-8
2,5, 1, 5, 0,23, 0.00,60.00,Monday
4973,-1.0457884572997119
4826,1944802.2618350809
4827,2.9672264645341785e-8
2,5, 1, 5, 0,24, 0.00,60.00,Monday
4973,-1.0335690302096655
4826,1831626.5577343733
4827,3.724380803760141e-8
2,6, 1, 6, 0, 1, 0.00,60.00,Tuesday
4973,-1.0243547846289656
4826,2016378.231028637
4827,5.907456559592674
2,6, 1, 6, 0, 2, 0.00,60.00,Tuesday
4973,-1.01685749695961
4826,2014043.7051067623
4827,5.832134775118902e-8
2,6, 1, 6, 0, 3, 0.00,60.00,Tuesday
4973,-1.0090344223064285
4826,1970614.739820091
4827,4.440607881406322e-8
2,6, 1, 6, 0, 4, 0.00,60.00,Tuesday
4973,-1.001617072903256
4826,1940414.2609831587
4827,6.190248313941993e-8
2,6, 1, 6, 0, 5, 0.00,60.00,Tuesday
4973,-0.994764002312564
4826,1926802.2051816588
4827,5.586571205640212e-8
2,6, 1, 6, 0, 6, 0.00,60.00,Tuesday
4973,-0.9884743474656647
4826,1910286.0297737958
4827,4.860112312599085e-8
2,6, 1, 6, 0, 7, 0.00,60.00,Tuesday
4973,-0.9832261093010037
4826,1895682.680308069
4827,4.5224624045658859e-8
2,6, 1, 6, 0, 8, 0.00,60.00,Tuesday
4973,-1.4941336287210044
4826,0.0
4827,0.0
2,6, 1, 6, 0, 9, 0.00,60.00,Tuesday
4973,-1.7992131450501765
4826,0.0
4827,0.0
2,6, 1, 6, 0,10, 0.00,60.00,Tuesday
4973,-1.8057975924773664
4826,0.0
4827,0.0
2,6, 1, 6, 0,11, 0.00,60.00,Tuesday
4973,-1.792432734418814
4826,0.0
4827,0.0
2,6, 1, 6, 0,12, 0.00,60.00,Tuesday
4973,-1.7750034075799679
4826,0.0
4827,0.0
2,6, 1, 6, 0,13, 0.00,60.00,Tuesday
4973,-1.748822234669169
4826,0.0
4827,0.0
2,6, 1, 6, 0,14, 0.00,60.00,Tuesday
4973,-1.7079112064766804
4826,0.0
4827,0.0
2,6, 1, 6, 0,15, 0.00,60.00,Tuesday
4973,-1.6641137644213893
4826,0.0
4827,0.0
2,6, 1, 6, 0,16, 0.00,60.00,Tuesday
4973,-1.6076581369839139
4826,0.0
4827,0.0
2,6, 1, 6, 0,17, 0.00,60.00,Tuesday
4973,-1.5711972235658578
4826,0.0
4827,0.0
2,6, 1, 6, 0,18, 0.00,60.00,Tuesday
4973,-1.5841432942611516
4826,0.0
4827,0.0
2,6, 1, 6, 0,19, 0.00,60.00,Tuesday
4973,-1.617804577229627
4826,0.0
4827,0.0
2,6, 1, 6, 0,20, 0.00,60.00,Tuesday
4973,-1.637502255998859
4826,0.0
4827,0.0
2,6, 1, 6, 0,21, 0.00,60.00,Tuesday
4973,-1.6675052867729206
4826,0.0
4827,0.0
2,6, 1, 6, 0,22, 0.00,60.00,Tuesday
4973,-1.1768960494040746
4826,2536783.6136659968
4827,6.441098321374739e-8
2,6, 1, 6, 0,23, 0.00,60.00,Tuesday
4973,-1.0055358909284465
4826,1819486.495617591
4827,3.090008249273524e-8
2,6, 1, 6, 0,24, 0.00,60.00,Tuesday
4973,-0.9945936800756103
4826,1717670.9097424923
4827,3.2383695725002329e-8
2,7, 1, 7, 0, 1, 0.00,60.00,Wednesday
4973,-0.989485912545916
4826,1911747.1417647377
4827,7.641801857971586e-8
2,7, 1, 7, 0, 2, 0.00,60.00,Wednesday
4973,-0.9867803236177213
4826,1926090.5151374369
4827,7.776179700158537e-8
2,7, 1, 7, 0, 3, 0.00,60.00,Wednesday
4973,-0.9862828287824097
4826,1955172.7666114046
4827,7.04972080711741e-8
2,7, 1, 7, 0, 4, 0.00,60.00,Wednesday
4973,-0.9877154998864277
4826,2001186.708357906
4827,1.8110313249053435e-8
2,7, 1, 7, 0, 5, 0.00,60.00,Wednesday
4973,-0.9912717000484833
4826,2062800.4879859826
4827,3.427658157306723e-8
2,7, 1, 7, 0, 6, 0.00,60.00,Wednesday
4973,-0.9965891002136301
4826,2122043.966880939
4827,4.808953235624358e-8
2,7, 1, 7, 0, 7, 0.00,60.00,Wednesday
4973,-1.0021162568722347
4826,2170668.4246823678
4827,5.1670667744474488e-8
2,7, 1, 7, 0, 8, 0.00,60.00,Wednesday
4973,-1.6473676115846057
4826,0.0
4827,0.0
2,7, 1, 7, 0, 9, 0.00,60.00,Wednesday
4973,-1.9999324045075753
4826,0.0
4827,0.0
2,7, 1, 7, 0,10, 0.00,60.00,Wednesday
4973,-2.0269353312872768
4826,0.0
4827,0.0
2,7, 1, 7, 0,11, 0.00,60.00,Wednesday
4973,-2.0304765145407877
4826,0.0
4827,0.0
2,7, 1, 7, 0,12, 0.00,60.00,Wednesday
4973,-2.0115250768433357
4826,0.0
4827,0.0
2,7, 1, 7, 0,13, 0.00,60.00,Wednesday
4973,-1.9645981704787224
4826,0.0
4827,0.0
2,7, 1, 7, 0,14, 0.00,60.00,Wednesday
4973,-1.8884928464674793
4826,0.0
4827,0.0
2,7, 1, 7, 0,15, 0.00,60.00,Wednesday
4973,-1.7889219499998684
4826,0.0
4827,0.0
2,7, 1, 7, 0,16, 0.00,60.00,Wednesday
4973,-1.6630237313768644
4826,0.0
4827,0.0
2,7, 1, 7, 0,17, 0.00,60.00,Wednesday
4973,-1.584133421968182
4826,0.0
4827,0.0
2,7, 1, 7, 0,18, 0.00,60.00,Wednesday
4973,-1.5995404038889778
4826,0.0
4827,0.0
2,7, 1, 7, 0,19, 0.00,60.00,Wednesday
4973,-1.6295090081170818
4826,0.0
4827,0.0
2,7, 1, 7, 0,20, 0.00,60.00,Wednesday
4973,-1.6481798920829048
4826,0.0
4827,0.0
2,7, 1, 7, 0,21, 0.00,60.00,Wednesday
4973,-1.6716299041692793
4826,0.0
4827,0.0
2,7, 1, 7, 0,22, 0.00,60.00,Wednesday
4973,-1.2004330325257429
4826,2446147.5180331545
4827,5.397623681346886e-8
2,7, 1, 7, 0,23, 0.00,60.00,Wednesday
4973,-1.038648405348082
4826,1823654.4880907313
4827,4.51223058917094e-8
2,7, 1, 7, 0,24, 0.00,60.00,Wednesday
4973,-1.0269970885481517
4826,1725691.517957125
4827,1.0948042472591624e-8
2,8, 1, 8, 0, 1, 0.00,60.00,Thursday
4973,-1.0206100145449558
4826,1920792.676632495
4827,4.827857732639781e-8
2,8, 1, 8, 0, 2, 0.00,60.00,Thursday
4973,-1.015039730818565
4826,1924372.5592411706
4827,4.921503204968758e-8
2,8, 1, 8, 0, 3, 0.00,60.00,Thursday
4973,-1.0101765296425589
4826,1942329.653538466
4827,9.750920071383007e-8
2,8, 1, 8, 0, 4, 0.00,60.00,Thursday
4973,-1.0061329945111517
4826,1958420.7851890173
4827,8.584493116359227e-8
2,8, 1, 8, 0, 5, 0.00,60.00,Thursday
4973,-1.002662281123469
4826,1964382.3178438734
4827,8.144525054376573e-8
2,8, 1, 8, 0, 6, 0.00,60.00,Thursday
4973,-0.9991752902365351
4826,1969718.4873232253
4827,9.822542779147625e-9
2,8, 1, 8, 0, 7, 0.00,60.00,Thursday
4973,-0.9966696026498423
4826,1966124.2077598544
4827,4.921503204968758e-8
2,8, 1, 8, 0, 8, 0.00,60.00,Thursday
4973,-1.5225133754977725
4826,0.0
4827,0.0
2,8, 1, 8, 0, 9, 0.00,60.00,Thursday
4973,-1.833323538626935
4826,0.0
4827,0.0
2,8, 1, 8, 0,10, 0.00,60.00,Thursday
4973,-1.8421188757462886
4826,0.0
4827,0.0
2,8, 1, 8, 0,11, 0.00,60.00,Thursday
4973,-1.8340448562603469
4826,0.0
4827,0.0
2,8, 1, 8, 0,12, 0.00,60.00,Thursday
4973,-1.814294777908002
4826,0.0
4827,0.0
2,8, 1, 8, 0,13, 0.00,60.00,Thursday
4973,-1.7911935850996153
4826,0.0
4827,0.0
2,8, 1, 8, 0,14, 0.00,60.00,Thursday
4973,-1.7665051677752975
4826,0.0
4827,0.0
2,8, 1, 8, 0,15, 0.00,60.00,Thursday
4973,-1.7424838603413769
4826,0.0
4827,0.0
2,8, 1, 8, 0,16, 0.00,60.00,Thursday
4973,-1.7219018669493074
4826,0.0
4827,0.0
2,8, 1, 8, 0,17, 0.00,60.00,Thursday
4973,-1.704961009848206
4826,0.0
4827,0.0
2,8, 1, 8, 0,18, 0.00,60.00,Thursday
4973,-1.7049584543983403
4826,0.0
4827,0.0
2,8, 1, 8, 0,19, 0.00,60.00,Thursday
4973,-1.7212660944320504
4826,0.0
4827,0.0
2,8, 1, 8, 0,20, 0.00,60.00,Thursday
4973,-1.7339771090494208
4826,0.0
4827,0.0
2,8, 1, 8, 0,21, 0.00,60.00,Thursday
4973,-1.7459145592843959
4826,0.0
4827,0.0
2,8, 1, 8, 0,22, 0.00,60.00,Thursday
4973,-1.2196038930567968
4826,2637610.32086905
4827,5.816445991513319e-8
2,8, 1, 8, 0,23, 0.00,60.00,Thursday
4973,-1.036166734853611
4826,1859151.771100679
4827,2.716546987358015e-8
2,8, 1, 8, 0,24, 0.00,60.00,Thursday
4973,-1.019973121273426
4826,1760091.011017774
4827,1.5194245861493984e-8
2,9, 1, 9, 0, 1, 0.00,60.00,Friday
4973,-1.012291580652907
4826,1969072.3441810045
4827,6.370279541962581e-8
2,9, 1, 9, 0, 2, 0.00,60.00,Friday
4973,-1.0084092543908932
4826,1990690.20529124
4827,2.4351720639970155e-8
2,9, 1, 9, 0, 3, 0.00,60.00,Friday
4973,-1.0055108366729007
4826,1992721.7404797464
4827,5.7195848057745027e-8
2,9, 1, 9, 0, 4, 0.00,60.00,Friday
4973,-1.001965792917371
4826,1978638.1727164102
4827,8.431015885435045e-8
2,9, 1, 9, 0, 5, 0.00,60.00,Friday
4973,-0.9977051320653592
4826,1963780.3779643728
4827,6.752998160663992e-9
2,9, 1, 9, 0, 6, 0.00,60.00,Friday
4973,-0.993459743871282
4826,1951893.465793836
4827,7.336211638175883e-8
2,9, 1, 9, 0, 7, 0.00,60.00,Friday
4973,-0.9902532893484244
4826,1941325.3457514935
4827,4.9828940973384309e-8
2,9, 1, 9, 0, 8, 0.00,60.00,Friday
4973,-1.5071021513257617
4826,0.0
4827,0.0
2,9, 1, 9, 0, 9, 0.00,60.00,Friday
4973,-1.821714018798808
4826,0.0
4827,0.0
2,9, 1, 9, 0,10, 0.00,60.00,Friday
4973,-1.8473665363528098
4826,0.0
4827,0.0
2,9, 1, 9, 0,11, 0.00,60.00,Friday
4973,-1.8520402907088627
4826,0.0
4827,0.0
2,9, 1, 9, 0,12, 0.00,60.00,Friday
4973,-1.851303391347463
4826,0.0
4827,0.0
2,9, 1, 9, 0,13, 0.00,60.00,Friday
4973,-1.849812987894819
4826,0.0
4827,0.0
2,9, 1, 9, 0,14, 0.00,60.00,Friday
4973,-1.843180381408081
4826,0.0
4827,0.0
2,9, 1, 9, 0,15, 0.00,60.00,Friday
4973,-1.840391359396813
4826,0.0
4827,0.0
2,9, 1, 9, 0,16, 0.00,60.00,Friday
4973,-1.8373149514391605
4826,0.0
4827,0.0
2,9, 1, 9, 0,17, 0.00,60.00,Friday
4973,-1.840747308668966
4826,0.0
4827,0.0
2,9, 1, 9, 0,18, 0.00,60.00,Friday
4973,-1.8502057363570999
4826,0.0
4827,0.0
2,9, 1, 9, 0,19, 0.00,60.00,Friday
4973,-1.8570878582335189
4826,0.0
4827,0.0
2,9, 1, 9, 0,20, 0.00,60.00,Friday
4973,-1.8475658577432473
4826,0.0
4827,0.0
2,9, 1, 9, 0,21, 0.00,60.00,Friday
4973,-1.845804769606151
4826,0.0
4827,0.0
2,9, 1, 9, 0,22, 0.00,60.00,Friday
4973,-1.2647283740480549
4826,2938631.5126695467
4827,3.509853740979452e-8
2,9, 1, 9, 0,23, 0.00,60.00,Friday
4973,-1.066896521455387
4826,2053227.7212710563
4827,7.356675268965773e-8
2,9, 1, 9, 0,24, 0.00,60.00,Friday
4973,-1.052348756523934
4826,1907669.544851115
4827,1.7394086171407254e-8
2,10, 1,10, 0, 1, 0.00,60.00,Saturday
4973,-1.0437571142801264
4826,2060242.7414144984
4827,2.2484829134956336
2,10, 1,10, 0, 2, 0.00,60.00,Saturday
4973,-1.0370018874143035
4826,2032210.4442064316
4827,2.5784174795262517e-8
2,10, 1,10, 0, 3, 0.00,60.00,Saturday
4973,-1.0310545222203247
4826,1994165.5678530615
4827,7.111111699487083e-8
2,10, 1,10, 0, 4, 0.00,60.00,Saturday
4973,-1.025265921995198
4826,1965425.1062254417
4827,6.036771083017811e-8
2,10, 1,10, 0, 5, 0.00,60.00,Saturday
4973,-1.019378770242076
4826,1947135.2916507046
4827,4.993125912733376e-8
2,10, 1,10, 0, 6, 0.00,60.00,Saturday
4973,-1.0139263897987499
4826,1936093.0319173698
4827,1.3301360013429076e-9
2,10, 1,10, 0, 7, 0.00,60.00,Saturday
4973,-1.0094090977723194
4826,1924758.9419582957
4827,1.4222223398974166e-8
2,10, 1,10, 0, 8, 0.00,60.00,Saturday
4973,-1.0058307593305465
4826,1907277.4077708817
4827,9.041173143486958e-8
2,10, 1,10, 0, 9, 0.00,60.00,Saturday
4973,-1.0029737487815003
4826,1955422.2948719764
4827,3.949480742448941e-8
2,10, 1,10, 0,10, 0.00,60.00,Saturday
4973,-1.0004979726959549
4826,1928234.9108826009
4827,2.4147084332071246e-8
2,10, 1,10, 0,11, 0.00,60.00,Saturday
4973,-0.9986264594690419
4826,1937559.8083435463
4827,1.2380496627883986e-8
2,10, 1,10, 0,12, 0.00,60.00,Saturday
4973,-0.9975856185276525
4826,1877200.0047695004
4827,0.0
2,10, 1,10, 0,13, 0.00,60.00,Saturday
4973,-0.9951993385395841
4826,1801508.2635936132
4827,2.3277380023500883e-8
2,10, 1,10, 0,14, 0.00,60.00,Saturday
4973,-0.9919831954293299
4826,1719223.0416149202
4827,1.9542767404345797e-8
2,10, 1,10, 0,15, 0.00,60.00,Saturday
4973,-0.9829679885970492
4826,1560495.0325654948
4827,5.852598405908793e-8
2,10, 1,10, 0,16, 0.00,60.00,Saturday
4973,-0.9666346673388055
4826,1463304.8943981708
4827,0.0
2,10, 1,10, 0,17, 0.00,60.00,Saturday
4973,-0.9501481277186371
4826,1487677.2825479189
4827,5.5712234825477938e-8
2,10, 1,10, 0,18, 0.00,60.00,Saturday
4973,-0.9409819149092487
4826,1505018.2020316697
4827,2.276578925375361e-8
2,10, 1,10, 0,19, 0.00,60.00,Saturday
4973,-0.9374229564000132
4826,1535318.2520512185
4827,3.821583050012123e-8
2,10, 1,10, 0,20, 0.00,60.00,Saturday
4973,-0.9352733197849068
4826,1444035.1725833095
4827,8.0831341620069e-9
2,10, 1,10, 0,21, 0.00,60.00,Saturday
4973,-0.9333756642072938
4826,1416893.1573518648
4827,5.468905328598339e-8
2,10, 1,10, 0,22, 0.00,60.00,Saturday
4973,-0.9279758327805455
4826,1399943.5958887086
4827,6.323261914076284e-8
2,10, 1,10, 0,23, 0.00,60.00,Saturday
4973,-0.920690649149165
4826,1396239.570114525
4827,2.0258994481991978e-8
2,10, 1,10, 0,24, 0.00,60.00,Saturday
4973,-0.9139694727336685
4826,1371484.081496675
4827,6.251639206311666e-8
2,11, 1,11, 0, 1, 0.00,60.00,Sunday
4973,-0.9142615200334056
4826,1569440.1237439304
4827,4.5782907623756078e-8
2,11, 1,11, 0, 2, 0.00,60.00,Sunday
4973,-0.9188345589580333
4826,1632037.9174506784
4827,1.3199041859479621e-8
2,11, 1,11, 0, 3, 0.00,60.00,Sunday
4973,-0.9249909276276154
4826,1664551.4944528039
4827,2.4556356947869064e-8
2,11, 1,11, 0, 4, 0.00,60.00,Sunday
4973,-0.9284300018067285
4826,1676075.752164068
4827,2.9467628337442876e-8
2,11, 1,11, 0, 5, 0.00,60.00,Sunday
4973,-0.9296493612561115
4826,1690103.3285092447
4827,4.328057912061922e-8
2,11, 1,11, 0, 6, 0.00,60.00,Sunday
4973,-0.9317065244097302
4826,1709209.7334667778
4827,4.6708237277925949e-8
2,11, 1,11, 0, 7, 0.00,60.00,Sunday
4973,-0.9346638619391503
4826,1725587.6636018267
4827,3.555555849743541e-8
2,11, 1,11, 0, 8, 0.00,60.00,Sunday
4973,-0.9363119067633074
4826,1710451.190596737
4827,4.616254045686219e-8
2,11, 1,11, 0, 9, 0.00,60.00,Sunday
4973,-0.935574103238892
4826,1692999.7580060843
4827,2.4914470486692154e-8
2,11, 1,11, 0,10, 0.00,60.00,Sunday
4973,-0.9310090188379397
4826,1618839.786399925
4827,5.54564394406043e-8
2,11, 1,11, 0,11, 0.00,60.00,Sunday
4973,-0.9247225101430816
4826,1621201.6991966754
4827,3.417426341911778e-8
2,11, 1,11, 0,12, 0.00,60.00,Sunday
4973,-0.919532026902182
4826,1583314.3460485778
4827,6.942286745470483e-8
2,11, 1,11, 0,13, 0.00,60.00,Sunday
4973,-0.9157929118535587
4826,1552339.3598488179
4827,1.6831336324685254e-8
2,11, 1,11, 0,14, 0.00,60.00,Sunday
4973,-0.9125849868944592
4826,1531812.2347820544
4827,3.2741809263825418e-9
2,11, 1,11, 0,15, 0.00,60.00,Sunday
4973,-0.9095930700036082
4826,1443274.4752328986
4827,4.0108716348186138e-8
2,11, 1,11, 0,16, 0.00,60.00,Sunday
4973,-0.9060564762851815
4826,1414035.742984622
4827,1.9696244635269978e-8
2,11, 1,11, 0,17, 0.00,60.00,Sunday
4973,-0.9042982784148644
4826,1453767.7280772455
4827,4.368985173641704e-8
2,11, 1,11, 0,18, 0.00,60.00,Sunday
4973,-0.9038205762326326
4826,1443319.6407906395
4827,3.9034375731716867e-8
2,11, 1,11, 0,19, 0.00,60.00,Sunday
4973,-0.9015086239244112
4826,1420489.2932537259
4827,2.808633325912524e-8
2,11, 1,11, 0,20, 0.00,60.00,Sunday
4973,-0.8989406147020138
4826,1279868.7078380134
4827,3.0388491722987968e-8
2,11, 1,11, 0,21, 0.00,60.00,Sunday
4973,-0.8961881600459486
4826,1222261.9480237007
4827,3.529976311256178e-8
2,11, 1,11, 0,22, 0.00,60.00,Sunday
4973,-0.8934021368163778
4826,1204237.9303096526
4827,4.353637450549286e-8
2,11, 1,11, 0,23, 0.00,60.00,Sunday
4973,-0.8925236249243241
4826,1192256.521629042
4827,2.997921910719015e-8
2,11, 1,11, 0,24, 0.00,60.00,Sunday
4973,-0.8919545124588135
4826,1131324.689982087
4827,3.1513991416431966e-8
2,12, 1,12, 0, 1, 0.00,60.00,Monday
4973,-0.893158707118447
4826,1274651.2097451129
4827,3.770965078659244e-8
2,12, 1,12, 0, 2, 0.00,60.00,Monday
4973,-0.8945099930046985
4826,1286578.9896986869
4827,5.0391690820106308e-8
2,12, 1,12, 0, 3, 0.00,60.00,Monday
4973,-0.8963535145229731
4826,1317475.662749414
4827,7.198082130344119e-8
2,12, 1,12, 0, 4, 0.00,60.00,Monday
4973,-0.8977864967279312
4826,1345936.3228909502
4827,3.217905941710342e-8
2,12, 1,12, 0, 5, 0.00,60.00,Monday
4973,-0.8977397736530438
4826,1372230.4292522644
4827,4.15411705034785e-8
2,12, 1,12, 0, 6, 0.00,60.00,Monday
4973,-0.8961969802971936
4826,1396816.1093706289
4827,1.2022383089060895e-8
2,12, 1,12, 0, 7, 0.00,60.00,Monday
4973,-0.893564786460054
4826,1413670.015543561
4827,6.676259545201902e-8
2,12, 1,12, 0, 8, 0.00,60.00,Monday
4973,-1.3497641608500702
4826,0.0
4827,0.0
2,12, 1,12, 0, 9, 0.00,60.00,Monday
4973,-1.6023178063372877
4826,0.0
4827,0.0
2,12, 1,12, 0,10, 0.00,60.00,Monday
4973,-1.6073893699284976
4826,0.0
4827,0.0
2,12, 1,12, 0,11, 0.00,60.00,Monday
4973,-1.6105177466921106
4826,0.0
4827,0.0
2,12, 1,12, 0,12, 0.00,60.00,Monday
4973,-1.6179785111765735
4826,0.0
4827,0.0
2,12, 1,12, 0,13, 0.00,60.00,Monday
4973,-1.6222872825434923
4826,0.0
4827,0.0
2,12, 1,12, 0,14, 0.00,60.00,Monday
4973,-1.6294964250257276
4826,0.0
4827,0.0
2,12, 1,12, 0,15, 0.00,60.00,Monday
4973,-1.629719615994519
4826,0.0
4827,0.0
2,12, 1,12, 0,16, 0.00,60.00,Monday
4973,-1.6230463641470952
4826,0.0
4827,0.0
2,12, 1,12, 0,17, 0.00,60.00,Monday
4973,-1.6134626555293755
4826,0.0
4827,0.0
2,12, 1,12, 0,18, 0.00,60.00,Monday
4973,-1.6050628367390217
4826,0.0
4827,0.0
2,12, 1,12, 0,19, 0.00,60.00,Monday
4973,-1.6044236179392555
4826,0.0
4827,0.0
2,12, 1,12, 0,20, 0.00,60.00,Monday
4973,-1.5988261330192
4826,0.0
4827,0.0
2,12, 1,12, 0,21, 0.00,60.00,Monday
4973,-1.6023138771045425
4826,0.0
4827,0.0
2,12, 1,12, 0,22, 0.00,60.00,Monday
4973,-1.1282032827926066
4826,2230999.215075018
4827,6.194511570356554e-8
2,12, 1,12, 0,23, 0.00,60.00,Monday
4973,-0.9676207631928047
4826,1520705.9750250357
4827,1.0385292625869625e-8
2,12, 1,12, 0,24, 0.00,60.00,Monday
4973,-0.9562041288517493
4826,1404631.0582149074
4827,0.0
2,13, 1,13, 0, 1, 0.00,60.00,Tuesday
4973,-0.9492612092745203
4826,1579229.0101400829
4827,4.883568403440983
2,13, 1,13, 0, 2, 0.00,60.00,Tuesday
4973,-0.9433892772507921
4826,1568059.6160344044
4827,2.972342372231651e-8
2,13, 1,13, 0, 3, 0.00,60.00,Tuesday
4973,-0.9382215230270752
4826,1559397.266961191
4827,5.7912075135391208e-8
2,13, 1,13, 0, 4, 0.00,60.00,Tuesday
4973,-0.9336476641937356
4826,1551703.6750983999
4827,3.381614988029469e-8
2,13, 1,13, 0, 5, 0.00,60.00,Tuesday
4973,-0.9293485012842158
4826,1549259.4866742925
4827,4.1796965888352136e-8
2,13, 1,13, 0, 6, 0.00,60.00,Tuesday
4973,-0.9252096440585766
4826,1551174.9637351195
4827,1.0487610779819079e-8
2,13, 1,13, 0, 7, 0.00,60.00,Tuesday
4973,-0.92225192895703
4826,1550868.97257471
4827,2.5988811103161426e-8
2,13, 1,13, 0, 8, 0.00,60.00,Tuesday