Program Version,EnergyPlus, Version 8.7.0-78a111df4a, YMD=2019.05.28 05:48
1,5,Environment Title[],Latitude[deg],Longitude[deg],Time Zone[],Elevation[m]
2,6,Day of Simulation[],Month[],Day of Month[],DST Indicator[1=yes 0=no],Hour[],StartMinute[],EndMinute[],DayType
3,3,Cumulative Day of Simulation[],Month[],Day of Month[],DST Indicator[1=yes 0=no],DayType  ! When Daily Report Variables Requested
4,2,Cumulative Days of Simulation[],Month[]  ! When Monthly Report Variables Requested
5,1,Cumulative Days of Simulation[] ! When Run Period Report Variables Requested
4826,1,BEDROOM2.2,Zone Ideal Loads Zone Total Heating Energy [J] !Hourly
4827,1,BEDROOM2.2,Zone Ideal Loads Zone Total Cooling Energy [J] !Hourly
4973,1,BEDROOM2.2,Zone Thermal Comfort Fanger Model PMV [] !Hourly
End of Data Dictionary
1,RUNPERIOD,  29.58, 106.47,   8.00, 259.10
2,1, 1, 1, 0, 1, 0.00,60.00,Thursday
4973,-1.054049054055398
4826,2246464.9230765907
4827,5.430303479608318e-8
2,1, 1, 1, 0, 2, 0.00,60.00,Thursday
4973,-1.0475897420174343
4826,2264352.0815694567
4827,8.963070285972208e-8
2,1, 1, 1, 0, 3, 0.00,60.00,Thursday
4973,-1.040098142701266
4826,2203161.793698994
4827,7.704556992393918e-8
2,1, 1, 1, 0, 4, 0.00,60.00,Thursday
4973,-1.033538105318574
4826,2170807.7031664366
4827,2.6193447411060334e-8
2,1, 1, 1, 0, 5, 0.00,60.00,Thursday
4973,-1.030861303329826
4826,2193038.395881762
4827,1.2922782843816095e-7
2,1, 1, 1, 0, 6, 0.00,60.00,Thursday
4973,-1.0311982789885162
4826,2220335.345718685
4827,5.494484867085703e-8
2,1, 1, 1, 0, 7, 0.00,60.00,Thursday
4973,-1.0336971672939906
4826,2242905.3497543905
4827,6.896243576193229e-8
2,1, 1, 1, 0, 8, 0.00,60.00,Thursday
4973,-1.6474278394712013
4826,0.0
4827,0.0
2,1, 1, 1, 0, 9, 0.00,60.00,Thursday
4973,-2.0295465246954258
4826,0.0
4827,0.0
2,1, 1, 1, 0,10, 0.00,60.00,Thursday
4973,-2.064481753416515
4826,0.0
4827,0.0
2,1, 1, 1, 0,11, 0.00,60.00,Thursday
4973,-2.0663821694423865
4826,0.0
4827,0.0
2,1, 1, 1, 0,12, 0.00,60.00,Thursday
4973,-2.0564683195884156
4826,0.0
4827,0.0
2,1, 1, 1, 0,13, 0.00,60.00,Thursday
4973,-2.0334507517026236
4826,0.0
4827,0.0
2,1, 1, 1, 0,14, 0.00,60.00,Thursday
4973,-1.9932254126945635
4826,0.0
4827,0.0
2,1, 1, 1, 0,15, 0.00,60.00,Thursday
4973,-1.9445081232720263
4826,0.0
4827,0.0
2,1, 1, 1, 0,16, 0.00,60.00,Thursday
4973,-1.883727555349585
4826,0.0
4827,0.0
2,1, 1, 1, 0,17, 0.00,60.00,Thursday
4973,-1.8159247500361487
4826,0.0
4827,0.0
2,1, 1, 1, 0,18, 0.00,60.00,Thursday
4973,-1.7586554589431077
4826,0.0
4827,0.0
2,1, 1, 1, 0,19, 0.00,60.00,Thursday
4973,-1.714374860407024
4826,0.0
4827,0.0
2,1, 1, 1, 0,20, 0.00,60.00,Thursday
4973,-1.6899448340129578
4826,0.0
4827,0.0
2,1, 1, 1, 0,21, 0.00,60.00,Thursday
4973,-1.7308435702450976
4826,0.0
4827,0.0
2,1, 1, 1, 0,22, 0.00,60.00,Thursday
4973,-1.2340542919817817
4826,2821051.1779657497
4827,5.799392965855077e-8
2,1, 1, 1, 0,23, 0.00,60.00,Thursday
4973,-1.0605614639644004
4826,2106716.015052629
4827,6.036771083017811e-8
2,1, 1, 1, 0,24, 0.00,60.00,Thursday
4973,-1.0575684678548916
4826,2015572.5337782773
4827,9.218865670845844e-8
2,2, 1, 2, 0, 1, 0.00,60.00,Friday
4973,-1.0561839661961364
4826,2216113.8541827586
4827,8.260082557337062e-8
2,2, 1, 2, 0, 2, 0.00,60.00,Friday
4973,-1.0553998258967655
4826,2222893.5262490438
4827,6.159552867757157e-8
2,2, 1, 2, 0, 3, 0.00,60.00,Friday
4973,-1.055167300702298
4826,2232910.6008665717
4827,1.596163201611489e-8
2,2, 1, 2, 0, 4, 0.00,60.00,Friday
4973,-1.0525197662214894
4826,2232293.513842512
4827,7.458993422915228e-8
2,2, 1, 2, 0, 5, 0.00,60.00,Friday
4973,-1.0489130245034955
4826,2223645.5972903759
4827,8.758433978073299e-8
2,2, 1, 2, 0, 6, 0.00,60.00,Friday
4973,-1.0452712357919359
4826,2218827.0683450868
4827,7.980816008057446e-9
2,2, 1, 2, 0, 7, 0.00,60.00,Friday
4973,-1.0416159086692687
4826,2209030.7214126696
4827,7.152038961066865e-8
2,2, 1, 2, 0, 8, 0.00,60.00,Friday
4973,-1.6158520302318467
4826,0.0
4827,0.0
2,2, 1, 2, 0, 9, 0.00,60.00,Friday
4973,-1.938360691069276
4826,0.0
4827,0.0
2,2, 1, 2, 0,10, 0.00,60.00,Friday
4973,-1.924708576402559
4826,0.0
4827,0.0
2,2, 1, 2, 0,11, 0.00,60.00,Friday
4973,-1.9021923822061156
4826,0.0
4827,0.0
2,2, 1, 2, 0,12, 0.00,60.00,Friday
4973,-1.8834518110036962
4826,0.0
4827,0.0
2,2, 1, 2, 0,13, 0.00,60.00,Friday
4973,-1.8642337810146992
4826,0.0
4827,0.0
2,2, 1, 2, 0,14, 0.00,60.00,Friday
4973,-1.8452670065298223
4826,0.0
4827,0.0
2,2, 1, 2, 0,15, 0.00,60.00,Friday
4973,-1.8160552388185074
4826,0.0
4827,0.0
2,2, 1, 2, 0,16, 0.00,60.00,Friday
4973,-1.781295639077214
4826,0.0
4827,0.0
2,2, 1, 2, 0,17, 0.00,60.00,Friday
4973,-1.7614668624359398
4826,0.0
4827,0.0
2,2, 1, 2, 0,18, 0.00,60.00,Friday
4973,-1.7869739800626714
4826,0.0
4827,0.0
2,2, 1, 2, 0,19, 0.00,60.00,Friday
4973,-1.833090841574467
4826,0.0
4827,0.0
2,2, 1, 2, 0,20, 0.00,60.00,Friday
4973,-1.8614105828811312
4826,0.0
4827,0.0
2,2, 1, 2, 0,21, 0.00,60.00,Friday
4973,-1.8906210363613896
4826,0.0
4827,0.0
2,2, 1, 2, 0,22, 0.00,60.00,Friday
4973,-1.284670082020426
4826,3110542.520396198
4827,1.1220549822610337e-7
2,2, 1, 2, 0,23, 0.00,60.00,Friday
4973,-1.0701908662234954
4826,2151260.5669473449
4827,4.338289727456868e-8
2,2, 1, 2, 0,24, 0.00,60.00,Friday
4973,-1.0540543947971315
4826,2045386.8088648788
4827,2.2612312022829429e-8
2,3, 1, 3, 0, 1, 0.00,60.00,Saturday
4973,-1.0480587522978174
4826,2259568.034294312
4827,1.0350070376510055e-7
2,3, 1, 3, 0, 2, 0.00,60.00,Saturday
4973,-1.046506336044632
4826,2299673.02559011
4827,3.560671757441014e-8
2,3, 1, 3, 0, 3, 0.00,60.00,Saturday
4973,-1.0495080394351287
4826,2318057.3868289489
4827,4.1950443119276318e-8
2,3, 1, 3, 0, 4, 0.00,60.00,Saturday
4973,-1.0517896461803878
4826,2319250.1676972007
4827,3.857394403894432e-8
2,3, 1, 3, 0, 5, 0.00,60.00,Saturday
4973,-1.0521461048947057
4826,2307948.465900852
4827,9.300720194005408e-8
2,3, 1, 3, 0, 6, 0.00,60.00,Saturday
4973,-1.05104516515112
4826,2282963.6705684957
4827,2.4147084332071246e-8
2,3, 1, 3, 0, 7, 0.00,60.00,Saturday
4973,-1.0476816319084282
4826,2236849.1642025455
4827,6.24140739091672e-8
2,3, 1, 3, 0, 8, 0.00,60.00,Saturday
4973,-1.0424938072453774
4826,2186752.819912571
4827,7.718199412920512e-8
2,3, 1, 3, 0, 9, 0.00,60.00,Saturday
4973,-1.0380431749352575
4826,2189288.373344979
4827,9.034692993736826e-8
2,3, 1, 3, 0,10, 0.00,60.00,Saturday
4973,-1.0328211187204537
4826,2133698.8028292495
4827,1.2892087397631258e-8
2,3, 1, 3, 0,11, 0.00,60.00,Saturday
4973,-1.0283651879965755
4826,2138122.6251962545
4827,5.2591531130019578e-8
2,3, 1, 3, 0,12, 0.00,60.00,Saturday
4973,-1.0249631194353333
4826,2092759.7393528959
4827,8.246843208326027e-8
2,3, 1, 3, 0,13, 0.00,60.00,Saturday
4973,-1.020750572577769
4826,2050097.122595655
4827,5.5149484978755939e-8
2,3, 1, 3, 0,14, 0.00,60.00,Saturday
4973,-1.016424866031199
4826,2011257.5190546897
4827,7.643166100024246e-8
2,3, 1, 3, 0,15, 0.00,60.00,Saturday
4973,-1.0118885889000953
4826,1944974.8951783947
4827,3.304876372567378e-8
2,3, 1, 3, 0,16, 0.00,60.00,Saturday
4973,-1.0055520203541569
4826,1927065.3815425572
4827,9.310952009400353e-9
2,3, 1, 3, 0,17, 0.00,60.00,Saturday
4973,-1.0007336974916595
4826,1956335.6690811869
4827,7.008793545537628e-8
2,3, 1, 3, 0,18, 0.00,60.00,Saturday
4973,-0.9968513790861062
4826,1942120.4811167096
4827,5.821902959723957e-8
2,3, 1, 3, 0,19, 0.00,60.00,Saturday
4973,-0.990831989269609
4826,1911716.3642722844
4827,1.3710632629226894e-8
2,3, 1, 3, 0,20, 0.00,60.00,Saturday
4973,-0.9840408515698715
4826,1772745.710344683
4827,4.044125034852186e-8
2,3, 1, 3, 0,21, 0.00,60.00,Saturday
4973,-0.9763715219393255
4826,1703557.4005987743
4827,5.560991667152848e-8
2,3, 1, 3, 0,22, 0.00,60.00,Saturday
4973,-0.9686299023267535
4826,1678276.836184547
4827,1.9133494788547979e-8
2,3, 1, 3, 0,23, 0.00,60.00,Saturday
4973,-0.9626968453129743
4826,1668693.0615976698
4827,3.182094587828033e-8
2,3, 1, 3, 0,24, 0.00,60.00,Saturday
4973,-0.9569703407636688
4826,1604631.379567062
4827,4.149001142650377e-8
2,4, 1, 4, 0, 1, 0.00,60.00,Sunday
4973,-0.9535629677590695
4826,1741990.4101523928
4827,5.966608152600088
2,4, 1, 4, 0, 2, 0.00,60.00,Sunday
4973,-0.9496372695154232
4826,1744538.7044215669
4827,1.1510792319313623e-8
2,4, 1, 4, 0, 3, 0.00,60.00,Sunday
4973,-0.946630450660776
4826,1726630.308227856
4827,4.650360097002704e-8
2,4, 1, 4, 0, 4, 0.00,60.00,Sunday
4973,-0.9436151871547913
4826,1713882.867155786
4827,2.7421265258453788e-8
2,4, 1, 4, 0, 5, 0.00,60.00,Sunday
4973,-0.940199045088951
4826,1705094.101118913
4827,2.624460648803506e-8
2,4, 1, 4, 0, 6, 0.00,60.00,Sunday
4973,-0.9368085881083619
4826,1702585.038308336
4827,4.773141881742049e-8
2,4, 1, 4, 0, 7, 0.00,60.00,Sunday
4973,-0.9338821794260829
4826,1699293.4780121223
4827,1.4273382475948893e-8
2,4, 1, 4, 0, 8, 0.00,60.00,Sunday
4973,-0.9312635983493123
4826,1688123.0479466806
4827,7.727237516519381e-8
2,4, 1, 4, 0, 9, 0.00,60.00,Sunday
4973,-0.9304526558034888
4826,1725426.826809591
4827,0.0
2,4, 1, 4, 0,10, 0.00,60.00,Sunday
4973,-0.9295431719102492
4826,1693068.7523412205
4827,5.325659913069103e-8
2,4, 1, 4, 0,11, 0.00,60.00,Sunday
4973,-0.9287320804327717
4826,1716682.3034133516
4827,5.412630343926139e-8
2,4, 1, 4, 0,12, 0.00,60.00,Sunday
4973,-0.9299260577304731
4826,1677540.3778896633
4827,7.013909453235101e-8
2,4, 1, 4, 0,13, 0.00,60.00,Sunday
4973,-0.9293495698112446
4826,1627581.6234610477
4827,6.082814252295066e-8
2,4, 1, 4, 0,14, 0.00,60.00,Sunday
4973,-0.9284003182458901
4826,1566603.28204586
4827,3.391846803424414e-8
2,4, 1, 4, 0,15, 0.00,60.00,Sunday
4973,-0.9248745746266445
4826,1457222.4675997748
4827,7.126459422579501e-8
2,4, 1, 4, 0,16, 0.00,60.00,Sunday
4973,-0.9168789696581651
4826,1404012.2825294897
4827,2.2612312022829429e-8
2,4, 1, 4, 0,17, 0.00,60.00,Sunday
4973,-0.9090791448629221
4826,1439688.8960185364
4827,7.776179700158537e-9
2,4, 1, 4, 0,18, 0.00,60.00,Sunday
4973,-0.9057716335173933
4826,1456340.0214567506
4827,3.3304559110547419e-8
2,4, 1, 4, 0,19, 0.00,60.00,Sunday
4973,-0.9034754099472099
4826,1477994.6716059482
4827,4.1234216041630137e-8
2,4, 1, 4, 0,20, 0.00,60.00,Sunday
4973,-0.9006132574513679
4826,1387605.4804246617
4827,4.1950443119276318e-8
2,4, 1, 4, 0,21, 0.00,60.00,Sunday
4973,-0.8993153336733737
4826,1359903.1034362899
4827,1.8468426787876525e-8
2,4, 1, 4, 0,22, 0.00,60.00,Sunday
4973,-0.8979583707820505
4826,1360571.3846707608
4827,1.908233571157325e-8
2,4, 1, 4, 0,23, 0.00,60.00,Sunday
4973,-0.89615676507352
4826,1357710.5617731044
4827,4.338289727456868e-8
2,4, 1, 4, 0,24, 0.00,60.00,Sunday
4973,-0.8942817716087916
4826,1294161.2445827779
4827,4.583853296935558e-8
2,5, 1, 5, 0, 1, 0.00,60.00,Monday
4973,-0.8947474297540184
4826,1430145.072084931
4827,0.5400139639351664
2,5, 1, 5, 0, 2, 0.00,60.00,Monday
4973,-0.8939622141335701
4826,1425437.5812994098
4827,3.5146285881637598e-8
2,5, 1, 5, 0, 3, 0.00,60.00,Monday
4973,-0.8944470190086195
4826,1442215.8794586443
4827,0.0
2,5, 1, 5, 0, 4, 0.00,60.00,Monday
4973,-0.8967555985724562
4826,1462511.380048378
4827,0.0
2,5, 1, 5, 0, 5, 0.00,60.00,Monday
4973,-0.9001445731158833
4826,1476093.8758791942
4827,2.496562956366688e-8
2,5, 1, 5, 0, 6, 0.00,60.00,Monday
4973,-0.9033057155624971
4826,1491828.9749566
4827,4.45595560449874e-8
2,5, 1, 5, 0, 7, 0.00,60.00,Monday
4973,-0.9062435687868883
4826,1508128.9519805518
4827,1.67290181707358e-8
2,5, 1, 5, 0, 8, 0.00,60.00,Monday
4973,-1.4075605428210135
4826,0.0
4827,0.0
2,5, 1, 5, 0, 9, 0.00,60.00,Monday
4973,-1.6796223834322528
4826,0.0
4827,0.0
2,5, 1, 5, 0,10, 0.00,60.00,Monday
4973,-1.6985100083776613
4826,0.0
4827,0.0
2,5, 1, 5, 0,11, 0.00,60.00,Monday
4973,-1.7071580182205182
4826,0.0
4827,0.0
2,5, 1, 5, 0,12, 0.00,60.00,Monday
4973,-1.7130016618869888
4826,0.0
4827,0.0
2,5, 1, 5, 0,13, 0.00,60.00,Monday
4973,-1.714148937036554
4826,0.0
4827,0.0
2,5, 1, 5, 0,14, 0.00,60.00,Monday
4973,-1.7081135132595454
4826,0.0
4827,0.0
2,5, 1, 5, 0,15, 0.00,60.00,Monday
4973,-1.700297872315743
4826,0.0
4827,0.0
2,5, 1, 5, 0,16, 0.00,60.00,Monday
4973,-1.6921210589021385
4826,0.0
4827,0.0
2,5, 1, 5, 0,17, 0.00,60.00,Monday
4973,-1.6892086148584734
4826,0.0
4827,0.0
2,5, 1, 5, 0,18, 0.00,60.00,Monday
4973,-1.6884168476617299
4826,0.0
4827,0.0
2,5, 1, 5, 0,19, 0.00,60.00,Monday
4973,-1.6918226895973896
4826,0.0
4827,0.0
2,5, 1, 5, 0,20, 0.00,60.00,Monday
4973,-1.6853602640080419
4826,0.0
4827,0.0
2,5, 1, 5, 0,21, 0.00,60.00,Monday
4973,-1.7003313203861828
4826,0.0
4827,0.0
2,5, 1, 5, 0,22, 0.00,60.00,Monday
4973,-1.182212543694869
4826,2527001.1343204316
4827,1.4020997696206905e-8
2,5, 1, 5, 0,23, 0.00,60.00,Monday
4973,-1.0015905744912113
4826,1723057.9221708258
4827,2.7574742489377969e-8
2,5, 1, 5, 0,24, 0.00,60.00,Monday
4973,-0.9906049206248256
4826,1620681.1156465852
4827,1.851958586485125e-8
2,6, 1, 6, 0, 1, 0.00,60.00,Tuesday
4973,-0.9823292596891557
4826,1812836.098719151
4827,5.305777823842277
2,6, 1, 6, 0, 2, 0.00,60.00,Tuesday
4973,-0.9754190243910872
4826,1814817.8414472284
4827,2.0514789866865614e-8
2,6, 1, 6, 0, 3, 0.00,60.00,Tuesday
4973,-0.9677324547313365
4826,1772523.3345968065
4827,2.8904878490720877e-8
2,6, 1, 6, 0, 4, 0.00,60.00,Tuesday
4973,-0.9606281909887577
4826,1744628.4711629938
4827,1.3864109860151075e-8
2,6, 1, 6, 0, 5, 0.00,60.00,Tuesday
4973,-0.9542509717831504
4826,1734935.9983979029
4827,8.758433978073299e-8
2,6, 1, 6, 0, 6, 0.00,60.00,Tuesday
4973,-0.9481488624609767
4826,1719968.7757996615
4827,4.374101081339177e-8
2,6, 1, 6, 0, 7, 0.00,60.00,Tuesday
4973,-0.9431437747343182
4826,1707205.2643409023
4827,6.461391421908047e-8
2,6, 1, 6, 0, 8, 0.00,60.00,Tuesday
4973,-1.4432455673074625
4826,0.0
4827,0.0
2,6, 1, 6, 0, 9, 0.00,60.00,Tuesday
4973,-1.7245677940861635
4826,0.0
4827,0.0
2,6, 1, 6, 0,10, 0.00,60.00,Tuesday
4973,-1.7199140670964497
4826,0.0
4827,0.0
2,6, 1, 6, 0,11, 0.00,60.00,Tuesday
4973,-1.6996102568686805
4826,0.0
4827,0.0
2,6, 1, 6, 0,12, 0.00,60.00,Tuesday
4973,-1.6752418260579357
4826,0.0
4827,0.0
2,6, 1, 6, 0,13, 0.00,60.00,Tuesday
4973,-1.6412679290463959
4826,0.0
4827,0.0
2,6, 1, 6, 0,14, 0.00,60.00,Tuesday
4973,-1.587954819773471
4826,0.0
4827,0.0
2,6, 1, 6, 0,15, 0.00,60.00,Tuesday
4973,-1.5430475743205848
4826,0.0
4827,0.0
2,6, 1, 6, 0,16, 0.00,60.00,Tuesday
4973,-1.489683130952513
4826,0.0
4827,0.0
2,6, 1, 6, 0,17, 0.00,60.00,Tuesday
4973,-1.4557905354854533
4826,0.0
4827,0.0
2,6, 1, 6, 0,18, 0.00,60.00,Tuesday
4973,-1.4712009918763125
4826,0.0
4827,0.0
2,6, 1, 6, 0,19, 0.00,60.00,Tuesday
4973,-1.5086253402811752
4826,0.0
4827,0.0
2,6, 1, 6, 0,20, 0.00,60.00,Tuesday
4973,-1.5321728893509046
4826,0.0
4827,0.0
2,6, 1, 6, 0,21, 0.00,60.00,Tuesday
4973,-1.5659192256760404
4826,0.0
4827,0.0
2,6, 1, 6, 0,22, 0.00,60.00,Tuesday
4973,-1.1138228056719233
4826,2241623.4838840069
4827,3.6582150642061609e-8
2,6, 1, 6, 0,23, 0.00,60.00,Tuesday
4973,-0.9567863153315921
4826,1575289.893812646
4827,4.3229420043644498e-8
2,6, 1, 6, 0,24, 0.00,60.00,Tuesday
4973,-0.9482174040171352
4826,1490437.1928187046
4827,4.768025974044576e-8
2,7, 1, 7, 0, 1, 0.00,60.00,Wednesday
4973,-0.9450143275056795
4826,1696920.030995688
4827,5.288898462042977e-8
2,7, 1, 7, 0, 2, 0.00,60.00,Wednesday
4973,-0.9438138573393016
4826,1720766.5141464766
4827,2.1179857867537067e-8
2,7, 1, 7, 0, 3, 0.00,60.00,Wednesday
4973,-0.9448445239401924
4826,1759573.5841917187
4827,1.9491608327371069e-8
2,7, 1, 7, 0, 4, 0.00,60.00,Wednesday
4973,-0.9476289652786785
4826,1814535.9995727069
4827,2.6653879103832879e-8
2,7, 1, 7, 0, 5, 0.00,60.00,Wednesday
4973,-0.9526518390912886
4826,1886047.5028632463
4827,1.0886651580221951e-7
2,7, 1, 7, 0, 6, 0.00,60.00,Wednesday
4973,-0.9593643606870681
4826,1955191.3164167014
4827,7.448761607520282e-8
2,7, 1, 7, 0, 7, 0.00,60.00,Wednesday
4973,-0.9658647353913878
4826,2010591.5899306236
4827,6.272102837101557e-8
2,7, 1, 7, 0, 8, 0.00,60.00,Wednesday
4973,-1.5970262981263155
4826,0.0
4827,0.0
2,7, 1, 7, 0, 9, 0.00,60.00,Wednesday
4973,-1.9316767595445712
4826,0.0
4827,0.0
2,7, 1, 7, 0,10, 0.00,60.00,Wednesday
4973,-1.9527905968569353
4826,0.0
4827,0.0
2,7, 1, 7, 0,11, 0.00,60.00,Wednesday
4973,-1.9488299952857105
4826,0.0
4827,0.0
2,7, 1, 7, 0,12, 0.00,60.00,Wednesday
4973,-1.9216977150894086
4826,0.0
4827,0.0
2,7, 1, 7, 0,13, 0.00,60.00,Wednesday
4973,-1.8644022923163036
4826,0.0
4827,0.0
2,7, 1, 7, 0,14, 0.00,60.00,Wednesday
4973,-1.7785642133498545
4826,0.0
4827,0.0
2,7, 1, 7, 0,15, 0.00,60.00,Wednesday
4973,-1.6735972213254174
4826,0.0
4827,0.0
2,7, 1, 7, 0,16, 0.00,60.00,Wednesday
4973,-1.5455495010010512
4826,0.0
4827,0.0
2,7, 1, 7, 0,17, 0.00,60.00,Wednesday
4973,-1.4685241410684822
4826,0.0
4827,0.0
2,7, 1, 7, 0,18, 0.00,60.00,Wednesday
4973,-1.4876442762753195
4826,0.0
4827,0.0
2,7, 1, 7, 0,19, 0.00,60.00,Wednesday
4973,-1.5221544272254795
4826,0.0
4827,0.0
2,7, 1, 7, 0,20, 0.00,60.00,Wednesday
4973,-1.5449286990122313
4826,0.0
4827,0.0
2,7, 1, 7, 0,21, 0.00,60.00,Wednesday
4973,-1.5713352218442869
4826,0.0
4827,0.0
2,7, 1, 7, 0,22, 0.00,60.00,Wednesday
4973,-1.1376138959001825
4826,2178651.5977044415
4827,3.5830112210533119e-8
2,7, 1, 7, 0,23, 0.00,60.00,Wednesday
4973,-0.9885583146410243
4826,1565684.8698710013
4827,6.481855052697938e-8
2,7, 1, 7, 0,24, 0.00,60.00,Wednesday
4973,-0.9795766415492726
4826,1486795.4360896818
4827,3.3713831726345236e-8
2,8, 1, 8, 0, 1, 0.00,60.00,Thursday
4973,-0.9753394386228993
4826,1696417.2040541515
4827,6.300590135092185e-8
2,8, 1, 8, 0, 2, 0.00,60.00,Thursday
4973,-0.9712965160541027
4826,1709725.1119535166
4827,7.530616130679846e-8
2,8, 1, 8, 0, 3, 0.00,60.00,Thursday
4973,-0.9679677149294825
4826,1737610.9168661454
4827,3.17697868013056e-8
2,8, 1, 8, 0, 4, 0.00,60.00,Thursday
4973,-0.96514227876952
4826,1761725.0100724865
4827,3.785771696129814e-8
2,8, 1, 8, 0, 5, 0.00,60.00,Thursday
4973,-0.9627529967182524
4826,1774687.091747418
4827,5.8474824982113208e-8
2,8, 1, 8, 0, 6, 0.00,60.00,Thursday
4973,-0.960199707429872
4826,1786323.168441549
4827,2.6551560949883425e-8
2,8, 1, 8, 0, 7, 0.00,60.00,Thursday
4973,-0.9584361799792521
4826,1787513.8561613828
4827,2.2254198484006339e-8
2,8, 1, 8, 0, 8, 0.00,60.00,Thursday
4973,-1.4751280136793784
4826,0.0
4827,0.0
2,8, 1, 8, 0, 9, 0.00,60.00,Thursday
4973,-1.7640171178698637
4826,0.0
4827,0.0
2,8, 1, 8, 0,10, 0.00,60.00,Thursday
4973,-1.7649765555066209
4826,0.0
4827,0.0
2,8, 1, 8, 0,11, 0.00,60.00,Thursday
4973,-1.749919289523904
4826,0.0
4827,0.0
2,8, 1, 8, 0,12, 0.00,60.00,Thursday
4973,-1.7243433280232559
4826,0.0
4827,0.0
2,8, 1, 8, 0,13, 0.00,60.00,Thursday
4973,-1.6933875372720318
4826,0.0
4827,0.0
2,8, 1, 8, 0,14, 0.00,60.00,Thursday
4973,-1.6621130583378987
4826,0.0
4827,0.0
2,8, 1, 8, 0,15, 0.00,60.00,Thursday
4973,-1.6349745367168576
4826,0.0
4827,0.0
2,8, 1, 8, 0,16, 0.00,60.00,Thursday
4973,-1.6136885762298
4826,0.0
4827,0.0
2,8, 1, 8, 0,17, 0.00,60.00,Thursday
4973,-1.598152850782879
4826,0.0
4827,0.0
2,8, 1, 8, 0,18, 0.00,60.00,Thursday
4973,-1.6023313970505795
4826,0.0
4827,0.0
2,8, 1, 8, 0,19, 0.00,60.00,Thursday
4973,-1.6229727137737434
4826,0.0
4827,0.0
2,8, 1, 8, 0,20, 0.00,60.00,Thursday
4973,-1.6395622734079374
4826,0.0
4827,0.0
2,8, 1, 8, 0,21, 0.00,60.00,Thursday
4973,-1.6546334234947367
4826,0.0
4827,0.0
2,8, 1, 8, 0,22, 0.00,60.00,Thursday
4973,-1.1625623958087155
4826,2366045.010547672
4827,4.8570427679806019e-8
2,8, 1, 8, 0,23, 0.00,60.00,Thursday
4973,-0.9913842832671622
4826,1628981.7381455708
4827,1.4733814168721438e-8
2,8, 1, 8, 0,24, 0.00,60.00,Thursday
4973,-0.9772457797034877
4826,1545470.5456254972
4827,2.2714630176778884e-8
2,9, 1, 9, 0, 1, 0.00,60.00,Friday
4973,-0.9714242745988925
4826,1767246.1367187869
4827,7.409807624623812e-8
2,9, 1, 9, 0, 2, 0.00,60.00,Friday
4973,-0.9692550778753033
4826,1798073.644839684
4827,5.213109943724703e-8
2,9, 1, 9, 0, 3, 0.00,60.00,Friday
4973,-0.9674505888851066
4826,1808105.1884390289
4827,3.40207861881936e-8
2,9, 1, 9, 0, 4, 0.00,60.00,Friday
4973,-0.9645753263942487
4826,1798951.4623537258
4827,6.773461791453883e-8
2,9, 1, 9, 0, 5, 0.00,60.00,Friday
4973,-0.9608325963514472
4826,1787646.882394266
4827,8.630536285636481e-8
2,9, 1, 9, 0, 6, 0.00,60.00,Friday
4973,-0.9571163075809769
4826,1779566.1700104052
4827,9.090967978409026e-8
2,9, 1, 9, 0, 7, 0.00,60.00,Friday
4973,-0.9542554239645636
4826,1771356.0696816303
4827,5.136371328262612e-8
2,9, 1, 9, 0, 8, 0.00,60.00,Friday
4973,-1.4554319899560709
4826,0.0
4827,0.0
2,9, 1, 9, 0, 9, 0.00,60.00,Friday
4973,-1.753430102411759
4826,0.0
4827,0.0
2,9, 1, 9, 0,10, 0.00,60.00,Friday
4973,-1.7760832442299948
4826,0.0
4827,0.0
2,9, 1, 9, 0,11, 0.00,60.00,Friday
4973,-1.7776592251521455
4826,0.0
4827,0.0
2,9, 1, 9, 0,12, 0.00,60.00,Friday
4973,-1.7740039092527152
4826,0.0
4827,0.0
2,9, 1, 9, 0,13, 0.00,60.00,Friday
4973,-1.770073867814219
4826,0.0
4827,0.0
2,9, 1, 9, 0,14, 0.00,60.00,Friday
4973,-1.761034522047848
4826,0.0
4827,0.0
2,9, 1, 9, 0,15, 0.00,60.00,Friday
4973,-1.7562184120530793
4826,0.0
4827,0.0
2,9, 1, 9, 0,16, 0.00,60.00,Friday
4973,-1.7519299635359603
4826,0.0
4827,0.0
2,9, 1, 9, 0,17, 0.00,60.00,Friday
4973,-1.7548133622105029
4826,0.0
4827,0.0
2,9, 1, 9, 0,18, 0.00,60.00,Friday
4973,-1.7642053672980463
4826,0.0
4827,0.0
2,9, 1, 9, 0,19, 0.00,60.00,Friday
4973,-1.7712150482142662
4826,0.0
4827,0.0
2,9, 1, 9, 0,20, 0.00,60.00,Friday
4973,-1.7625973439319052
4826,0.0
4827,0.0
2,9, 1, 9, 0,21, 0.00,60.00,Friday
4973,-1.7618572578956285
4826,0.0
4827,0.0
2,9, 1, 9, 0,22, 0.00,60.00,Friday
4973,-1.2111552085311957
4826,2674012.143533294
4827,5.7062834457610737e-8
2,9, 1, 9, 0,23, 0.00,60.00,Friday
4973,-1.0242102791791248
4826,1823880.1171284475
4827,4.7833736971369947e-8
2,9, 1, 9, 0,24, 0.00,60.00,Friday
4973,-1.010720874355266
4826,1687898.341847841
4827,3.739728526852559e-8
2,10, 1,10, 0, 1, 0.00,60.00,Saturday
4973,-1.0029400395746496
4826,1846939.0561579318
4827,1.9969648060347416
2,10, 1,10, 0, 2, 0.00,60.00,Saturday
4973,-0.9969159873044933
4826,1824360.4197744916
4827,3.437889972701669e-8
2,10, 1,10, 0, 3, 0.00,60.00,Saturday
4973,-0.9910299497809665
4826,1787059.9997980544
4827,9.00399754755199e-8
2,10, 1,10, 0, 4, 0.00,60.00,Saturday
4973,-0.9855889137951094
4826,1760736.1516942583
4827,3.4634695111890326e-8
2,10, 1,10, 0, 5, 0.00,60.00,Saturday
4973,-0.9800939634519115
4826,1745990.9081174078
4827,8.236611392931082e-9
2,10, 1,10, 0, 6, 0.00,60.00,Saturday
4973,-0.9752001306339063
4826,1739262.4077577657
4827,1.984972186619416e-8
2,10, 1,10, 0, 7, 0.00,60.00,Saturday
4973,-0.9711175519494257
4826,1731548.3054752604
4827,3.785771696129814e-8
2,10, 1,10, 0, 8, 0.00,60.00,Saturday
4973,-0.9679873476864507
4826,1717530.5003717098
4827,4.740570602734806e-8
2,10, 1,10, 0, 9, 0.00,60.00,Saturday
4973,-0.96526357266712
4826,1767687.5804815805
4827,6.313030098681338e-8
2,10, 1,10, 0,10, 0.00,60.00,Saturday
4973,-0.9609819704038938
4826,1730980.3691782593
4827,3.673221726785414e-8
2,10, 1,10, 0,11, 0.00,60.00,Saturday
4973,-0.9563637097451057
4826,1726175.1797685219
4827,1.9338131096446888e-8
2,10, 1,10, 0,12, 0.00,60.00,Saturday
4973,-0.9520196870478187
4826,1648706.872292932
4827,6.906475391588174e-8
2,10, 1,10, 0,13, 0.00,60.00,Saturday
4973,-0.9471903340322664
4826,1561341.0858642718
4827,3.0593128030886876e-8
2,10, 1,10, 0,14, 0.00,60.00,Saturday
4973,-0.9440476482502176
4826,1481423.4331011903
4827,6.548361852765083e-9
2,10, 1,10, 0,15, 0.00,60.00,Saturday
4973,-0.9344425464077645
4826,1320638.1402607028
4827,0.0
2,10, 1,10, 0,16, 0.00,60.00,Saturday
4973,-0.9177631543411686
4826,1222872.5254117307
4827,2.6705038180807607e-8
2,10, 1,10, 0,17, 0.00,60.00,Saturday
4973,-0.9025685184044987
4826,1255995.3027131786
4827,3.136051418550778e-8
2,10, 1,10, 0,18, 0.00,60.00,Saturday
4973,-0.8954358763842418
4826,1285705.340622454
4827,1.9491608327371069e-8
2,10, 1,10, 0,19, 0.00,60.00,Saturday
4973,-0.8955072955804868
4826,1336826.195829653
4827,7.013909453235101e-8
2,10, 1,10, 0,20, 0.00,60.00,Saturday
4973,-0.8957878408216141
4826,1260016.6397048727
4827,3.5223024497099689e-8
2,10, 1,10, 0,21, 0.00,60.00,Saturday
4973,-0.8958665602491944
4826,1244565.23804817
4827,1.9133494788547979e-8
2,10, 1,10, 0,22, 0.00,60.00,Saturday
4973,-0.8917020796113284
4826,1235165.2791510286
4827,2.8188651413074696e-8
2,10, 1,10, 0,23, 0.00,60.00,Saturday
4973,-0.8857042523230057
4826,1239501.9152150879
4827,2.1231016944511795e-8
2,10, 1,10, 0,24, 0.00,60.00,Saturday
4973,-0.8803269760052743
4826,1223694.1480250913
4827,4.297362465877086e-8
2,11, 1,11, 0, 1, 0.00,60.00,Sunday
4973,-0.8821764205647784
4826,1431317.1923372807
4827,4.8992936691709997e-8
2,11, 1,11, 0, 2, 0.00,60.00,Sunday
4973,-0.8880506464997581
4826,1502001.367688477
4827,4.1234216041630137e-8
2,11, 1,11, 0, 3, 0.00,60.00,Sunday
4973,-0.8951147241014712
4826,1539746.3405207624
4827,6.07258243690012e-8
2,11, 1,11, 0, 4, 0.00,60.00,Sunday
4973,-0.8991879146401143
4826,1555238.7194632122
4827,4.149001142650377e-8
2,11, 1,11, 0, 5, 0.00,60.00,Sunday
4973,-0.9006966494464297
4826,1571076.2214215948
4827,1.6063950170064346e-8
2,11, 1,11, 0, 6, 0.00,60.00,Sunday
4973,-0.9030841601392037
4826,1592300.842537641
4827,0.0
2,11, 1,11, 0, 7, 0.00,60.00,Sunday
4973,-0.9064361762850003
4826,1611638.88764172
4827,7.750600161671173e-8
2,11, 1,11, 0, 8, 0.00,60.00,Sunday
4973,-0.9081944526993004
4826,1597532.4468627948
4827,3.383320290595293e-8
2,11, 1,11, 0, 9, 0.00,60.00,Sunday
4973,-0.9065922391250512
4826,1574115.8903437905
4827,5.806555236631539e-8
2,11, 1,11, 0,10, 0.00,60.00,Sunday
4973,-0.9004547802706832
4826,1489561.0512041546
4827,4.256435204297304e-8
2,11, 1,11, 0,11, 0.00,60.00,Sunday
4973,-0.8925814757936819
4826,1482586.21525954
4827,4.205276127322577e-8
2,11, 1,11, 0,12, 0.00,60.00,Sunday
4973,-0.886002547601878
4826,1437210.5307268217
4827,4.445723789103795e-8
2,11, 1,11, 0,13, 0.00,60.00,Sunday
4973,-0.8810342842664898
4826,1399856.2146601405
4827,1.7547563402331435e-8
2,11, 1,11, 0,14, 0.00,60.00,Sunday
4973,-0.8769716524167617
4826,1375273.970327
4827,7.315748007385992e-8
2,11, 1,11, 0,15, 0.00,60.00,Sunday
4973,-0.8730465124883583
4826,1281668.0817618906
4827,8.374740900762845e-8
2,11, 1,11, 0,16, 0.00,60.00,Sunday
4973,-0.8690457749662752
4826,1249642.6002911397
4827,1.0743406164692715e-8
2,11, 1,11, 0,17, 0.00,60.00,Sunday
4973,-0.8673355205299156
4826,1289621.3061684929
4827,2.5272584025515245e-8
2,11, 1,11, 0,18, 0.00,60.00,Sunday
4973,-0.8675449221723026
4826,1283068.7443433554
4827,4.7475623432546857e-8
2,11, 1,11, 0,19, 0.00,60.00,Sunday
4973,-0.8659783852015359
4826,1264848.8455079497
4827,1.7956836018129253e-8
2,11, 1,11, 0,20, 0.00,60.00,Sunday
4973,-0.8637485710518841
4826,1126220.3158310415
4827,4.2308556658099408e-8
2,11, 1,11, 0,21, 0.00,60.00,Sunday
4973,-0.8617309530187041
4826,1073597.7796978416
4827,5.484253051690757e-8
2,11, 1,11, 0,22, 0.00,60.00,Sunday
4973,-0.859158837366712
4826,1057257.7434922099
4827,1.744524524838198e-8
2,11, 1,11, 0,23, 0.00,60.00,Sunday
4973,-0.8584700284019601
4826,1046444.7621742773
4827,4.829416866414249e-8
2,11, 1,11, 0,24, 0.00,60.00,Sunday
4973,-0.8580702137374279
4826,986900.6929754568
4827,2.532374310248997e-8
2,12, 1,12, 0, 1, 0.00,60.00,Monday
4973,-0.8592457195391747
4826,1129794.6189117772
4827,3.575593154891976e-8
2,12, 1,12, 0, 2, 0.00,60.00,Monday
4973,-0.8606877657916541
4826,1142679.1323854933
4827,2.6346924641984516e-8
2,12, 1,12, 0, 3, 0.00,60.00,Monday
4973,-0.8629942448712461
4826,1176562.0685409429
4827,4.68105554318754e-8
2,12, 1,12, 0, 4, 0.00,60.00,Monday
4973,-0.8647513068769099
4826,1207268.0650502262
4827,2.5221424948540517e-8
2,12, 1,12, 0, 5, 0.00,60.00,Monday
4973,-0.864977050411935
4826,1235590.6843013839
4827,4.650360097002704e-8
2,12, 1,12, 0, 6, 0.00,60.00,Monday
4973,-0.8635919484237402
4826,1261540.1156595478
4827,4.604316927725449e-8
2,12, 1,12, 0, 7, 0.00,60.00,Monday
4973,-0.8610693265583264
4826,1279351.5016556716
4827,6.384652806445956e-8
2,12, 1,12, 0, 8, 0.00,60.00,Monday
4973,-1.3032833524564303
4826,0.0
4827,0.0
2,12, 1,12, 0, 9, 0.00,60.00,Monday
4973,-1.539394587010145
4826,0.0
4827,0.0
2,12, 1,12, 0,10, 0.00,60.00,Monday
4973,-1.5411572515101633
4826,0.0
4827,0.0
2,12, 1,12, 0,11, 0.00,60.00,Monday
4973,-1.540920026693348
4826,0.0
4827,0.0
2,12, 1,12, 0,12, 0.00,60.00,Monday
4973,-1.5447929222352215
4826,0.0
4827,0.0
2,12, 1,12, 0,13, 0.00,60.00,Monday
4973,-1.5455462859377507
4826,0.0
4827,0.0
2,12, 1,12, 0,14, 0.00,60.00,Monday
4973,-1.5495335189746727
4826,0.0
4827,0.0
2,12, 1,12, 0,15, 0.00,60.00,Monday
4973,-1.5467336037963806
4826,0.0
4827,0.0
2,12, 1,12, 0,16, 0.00,60.00,Monday
4973,-1.5379252554117298
4826,0.0
4827,0.0
2,12, 1,12, 0,17, 0.00,60.00,Monday
4973,-1.5278919997356686
4826,0.0
4827,0.0
2,12, 1,12, 0,18, 0.00,60.00,Monday
4973,-1.519790234298045
4826,0.0
4827,0.0
2,12, 1,12, 0,19, 0.00,60.00,Monday
4973,-1.5200950800820703
4826,0.0
4827,0.0
2,12, 1,12, 0,20, 0.00,60.00,Monday
4973,-1.5154317834672658
4826,0.0
4827,0.0
2,12, 1,12, 0,21, 0.00,60.00,Monday
4973,-1.519590103269379
4826,0.0
4827,0.0
2,12, 1,12, 0,22, 0.00,60.00,Monday
4973,-1.0753187754540499
4826,1986640.429492598
4827,3.588297659007367e-8
2,12, 1,12, 0,23, 0.00,60.00,Monday
4973,-0.9248132719157005
4826,1312341.2053348404
4827,3.959712557843886e-8
2,12, 1,12, 0,24, 0.00,60.00,Monday
4973,-0.9142552917681026
4826,1203875.8938304668
4827,4.04156708100345e-9
2,13, 1,13, 0, 1, 0.00,60.00,Tuesday
4973,-0.9079151638389748
4826,1383292.6444336398
4827,4.28280346472576
2,13, 1,13, 0, 2, 0.00,60.00,Tuesday
4973,-0.902465864743597
4826,1375136.4572606055
4827,1.7547563402331435e-8
2,13, 1,13, 0, 3, 0.00,60.00,Tuesday
4973,-0.8979887555291212
4826,1371573.5298667877
4827,3.8829739423817958e-8
2,13, 1,13, 0, 4, 0.00,60.00,Tuesday
4973,-0.8939081213095477
4826,1367700.588487308
4827,3.5504399420460689e-8
2,13, 1,13, 0, 5, 0.00,60.00,Tuesday
4973,-0.8899305679868759
4826,1367585.4844047663
4827,6.609752745134756e-8
2,13, 1,13, 0, 6, 0.00,60.00,Tuesday
4973,-0.8861076624313143
4826,1371906.7981269202
4827,1.6012791093089619e-8
2,13, 1,13, 0, 7, 0.00,60.00,Tuesday
4973,-0.883634520507006
4826,1375167.9847580428
4827,2.3379698177450338e-8
2,13, 1,13, 0, 8, 0.00,60.00,Tuesday