Program Version,EnergyPlus, Version 8.7.0-78a111df4a, YMD=2019.05.25 22:02
1,5,Environment Title[],Latitude[deg],Longitude[deg],Time Zone[],Elevation[m]
2,6,Day of Simulation[],Month[],Day of Month[],DST Indicator[1=yes 0=no],Hour[],StartMinute[],EndMinute[],DayType
3,3,Cumulative Day of Simulation[],Month[],Day of Month[],DST Indicator[1=yes 0=no],DayType  ! When Daily Report Variables Requested
4,2,Cumulative Days of Simulation[],Month[]  ! When Monthly Report Variables Requested
5,1,Cumulative Days of Simulation[] ! When Run Period Report Variables Requested
4826,1,BEDROOM2.2,Zone Ideal Loads Zone Total Heating Energy [J] !Hourly
4827,1,BEDROOM2.2,Zone Ideal Loads Zone Total Cooling Energy [J] !Hourly
4973,1,BEDROOM2.2,Zone Thermal Comfort Fanger Model PMV [] !Hourly
End of Data Dictionary
1,RUNPERIOD,  29.58, 106.47,   8.00, 259.10
2,1, 1, 1, 0, 1, 0.00,60.00,Thursday
4973,-1.0482717244083045
4826,2218113.7680143115
4827,9.45661585402294e-8
2,1, 1, 1, 0, 2, 0.00,60.00,Thursday
4973,-1.0411638286168726
4826,2231095.7564809548
4827,5.0033577281283217e-8
2,1, 1, 1, 0, 3, 0.00,60.00,Thursday
4973,-1.0334301049374173
4826,2168588.1743949928
4827,6.210711944731884e-8
2,1, 1, 1, 0, 4, 0.00,60.00,Thursday
4973,-1.0269185459520292
4826,2136977.823568943
4827,7.622702469234355e-8
2,1, 1, 1, 0, 5, 0.00,60.00,Thursday
4973,-1.0236976042668243
4826,2155460.9903504576
4827,6.548361852765083e-9
2,1, 1, 1, 0, 6, 0.00,60.00,Thursday
4973,-1.0235352113592234
4826,2178795.078181906
4827,6.589289114344865e-8
2,1, 1, 1, 0, 7, 0.00,60.00,Thursday
4973,-1.025402476058897
4826,2196784.0617181777
4827,5.4637894209008667e-8
2,1, 1, 1, 0, 8, 0.00,60.00,Thursday
4973,-1.6311144605094834
4826,0.0
4827,0.0
2,1, 1, 1, 0, 9, 0.00,60.00,Thursday
4973,-2.0071846012830294
4826,0.0
4827,0.0
2,1, 1, 1, 0,10, 0.00,60.00,Thursday
4973,-2.044176876919489
4826,0.0
4827,0.0
2,1, 1, 1, 0,11, 0.00,60.00,Thursday
4973,-2.0498461064088207
4826,0.0
4827,0.0
2,1, 1, 1, 0,12, 0.00,60.00,Thursday
4973,-2.0445324803278948
4826,0.0
4827,0.0
2,1, 1, 1, 0,13, 0.00,60.00,Thursday
4973,-2.0261645413772366
4826,0.0
4827,0.0
2,1, 1, 1, 0,14, 0.00,60.00,Thursday
4973,-1.989679913046889
4826,0.0
4827,0.0
2,1, 1, 1, 0,15, 0.00,60.00,Thursday
4973,-1.9432703326937265
4826,0.0
4827,0.0
2,1, 1, 1, 0,16, 0.00,60.00,Thursday
4973,-1.883794921678425
4826,0.0
4827,0.0
2,1, 1, 1, 0,17, 0.00,60.00,Thursday
4973,-1.8158763752355447
4826,0.0
4827,0.0
2,1, 1, 1, 0,18, 0.00,60.00,Thursday
4973,-1.7557401558039597
4826,0.0
4827,0.0
2,1, 1, 1, 0,19, 0.00,60.00,Thursday
4973,-1.710303415204594
4826,0.0
4827,0.0
2,1, 1, 1, 0,20, 0.00,60.00,Thursday
4973,-1.685951972530891
4826,0.0
4827,0.0
2,1, 1, 1, 0,21, 0.00,60.00,Thursday
4973,-1.7252928292980148
4826,0.0
4827,0.0
2,1, 1, 1, 0,22, 0.00,60.00,Thursday
4973,-1.2300996220775725
4826,2813733.50562792
4827,9.453174243390095e-8
2,1, 1, 1, 0,23, 0.00,60.00,Thursday
4973,-1.0566126964114427
4826,2091724.956982999
4827,3.1718627724330874e-9
2,1, 1, 1, 0,24, 0.00,60.00,Thursday
4973,-1.0529896712671652
4826,1995748.3418356893
4827,4.2666670196922499e-8
2,2, 1, 2, 0, 1, 0.00,60.00,Friday
4973,-1.0508383439185954
4826,2190963.717331657
4827,7.070494492919269e-8
2,2, 1, 2, 0, 2, 0.00,60.00,Friday
4973,-1.0492149018313835
4826,2191479.21326322
4827,1.7496404325356708e-8
2,2, 1, 2, 0, 3, 0.00,60.00,Friday
4973,-1.048347041809755
4826,2196806.905095271
4827,1.1357315088389442e-8
2,2, 1, 2, 0, 4, 0.00,60.00,Friday
4973,-1.0453149476331807
4826,2193591.30241746
4827,3.1309355108533057e-8
2,2, 1, 2, 0, 5, 0.00,60.00,Friday
4973,-1.0413488122825552
4826,2182586.0649596268
4827,4.829416866414249e-8
2,2, 1, 2, 0, 6, 0.00,60.00,Friday
4973,-1.0372925545887617
4826,2174918.3671991077
4827,1.1480096873128787e-7
2,2, 1, 2, 0, 7, 0.00,60.00,Friday
4973,-1.0332860030357785
4826,2162663.481370156
4827,7.366907084360719e-9
2,2, 1, 2, 0, 8, 0.00,60.00,Friday
4973,-1.6002545190306253
4826,0.0
4827,0.0
2,2, 1, 2, 0, 9, 0.00,60.00,Friday
4973,-1.918479187111778
4826,0.0
4827,0.0
2,2, 1, 2, 0,10, 0.00,60.00,Friday
4973,-1.9072557905547696
4826,0.0
4827,0.0
2,2, 1, 2, 0,11, 0.00,60.00,Friday
4973,-1.889284595276136
4826,0.0
4827,0.0
2,2, 1, 2, 0,12, 0.00,60.00,Friday
4973,-1.8757169880622633
4826,0.0
4827,0.0
2,2, 1, 2, 0,13, 0.00,60.00,Friday
4973,-1.8605846110965683
4826,0.0
4827,0.0
2,2, 1, 2, 0,14, 0.00,60.00,Friday
4973,-1.8445224430037913
4826,0.0
4827,0.0
2,2, 1, 2, 0,15, 0.00,60.00,Friday
4973,-1.8177419652235183
4826,0.0
4827,0.0
2,2, 1, 2, 0,16, 0.00,60.00,Friday
4973,-1.7833950719394829
4826,0.0
4827,0.0
2,2, 1, 2, 0,17, 0.00,60.00,Friday
4973,-1.7622334030711658
4826,0.0
4827,0.0
2,2, 1, 2, 0,18, 0.00,60.00,Friday
4973,-1.7831758869151522
4826,0.0
4827,0.0
2,2, 1, 2, 0,19, 0.00,60.00,Friday
4973,-1.8256288110532435
4826,0.0
4827,0.0
2,2, 1, 2, 0,20, 0.00,60.00,Friday
4973,-1.8529237153742704
4826,0.0
4827,0.0
2,2, 1, 2, 0,21, 0.00,60.00,Friday
4973,-1.8807048025608447
4826,0.0
4827,0.0
2,2, 1, 2, 0,22, 0.00,60.00,Friday
4973,-1.2788858871501452
4826,3092503.7201803049
4827,6.774143912480213e-8
2,2, 1, 2, 0,23, 0.00,60.00,Friday
4973,-1.0657351660638433
4826,2132048.843473017
4827,9.00399754755199e-9
2,2, 1, 2, 0,24, 0.00,60.00,Friday
4973,-1.0488429486101312
4826,2020929.4766140122
4827,9.218865670845844e-8
2,3, 1, 3, 0, 1, 0.00,60.00,Saturday
4973,-1.0418751627954826
4826,2227922.05857147
4827,9.680041495647113e-8
2,3, 1, 3, 0, 2, 0.00,60.00,Saturday
4973,-1.0395715439379847
4826,2262553.4300184606
4827,5.228457666817121e-8
2,3, 1, 3, 0, 3, 0.00,60.00,Saturday
4973,-1.041880580878514
4826,2275840.7192341776
4827,1.0579697118373588e-7
2,3, 1, 3, 0, 4, 0.00,60.00,Saturday
4973,-1.0436780258044747
4826,2273514.9501343325
4827,4.6554760047001767e-8
2,3, 1, 3, 0, 5, 0.00,60.00,Saturday
4973,-1.0438251916463504
4826,2261130.620285169
4827,4.778257789439522e-8
2,3, 1, 3, 0, 6, 0.00,60.00,Saturday
4973,-1.0423032071432577
4826,2233380.2202652629
4827,8.758433978073299e-8
2,3, 1, 3, 0, 7, 0.00,60.00,Saturday
4973,-1.0388685962454139
4826,2187046.554039563
4827,6.660911822109483e-8
2,3, 1, 3, 0, 8, 0.00,60.00,Saturday
4973,-1.033474714324689
4826,2135978.2575963039
4827,3.5756784200202676e-8
2,3, 1, 3, 0, 9, 0.00,60.00,Saturday
4973,-1.0288511462067516
4826,2137307.7088410488
4827,4.51223058917094e-8
2,3, 1, 3, 0,10, 0.00,60.00,Saturday
4973,-1.0239550310058099
4826,2084192.6743466904
4827,0.0
2,3, 1, 3, 0,11, 0.00,60.00,Saturday
4973,-1.019883887090219
4826,2091373.0652208734
4827,2.8546764951897786e-8
2,3, 1, 3, 0,12, 0.00,60.00,Saturday
4973,-1.0165882384540806
4826,2046363.530823403
4827,7.418066161335446e-8
2,3, 1, 3, 0,13, 0.00,60.00,Saturday
4973,-1.0127265868658218
4826,2005741.0013740925
4827,0.0
2,3, 1, 3, 0,14, 0.00,60.00,Saturday
4973,-1.0086942607137777
4826,1968858.141161872
4827,2.5784174795262517e-8
2,3, 1, 3, 0,15, 0.00,60.00,Saturday
4973,-1.0039469189159294
4826,1900783.5905192244
4827,4.84988049720414e-8
2,3, 1, 3, 0,16, 0.00,60.00,Saturday
4973,-0.9976733515798664
4826,1883157.0353195947
4827,2.1793766791233794e-8
2,3, 1, 3, 0,17, 0.00,60.00,Saturday
4973,-0.9928117861669893
4826,1912468.703293886
4827,5.412630343926139e-8
2,3, 1, 3, 0,18, 0.00,60.00,Saturday
4973,-0.988508830234932
4826,1895406.8562064106
4827,3.714148988365196e-8
2,3, 1, 3, 0,19, 0.00,60.00,Saturday
4973,-0.9821787535559712
4826,1862987.631648969
4827,3.028617356903851e-8
2,3, 1, 3, 0,20, 0.00,60.00,Saturday
4973,-0.975114045178657
4826,1722307.274059387
4827,2.5579538487363608e-8
2,3, 1, 3, 0,21, 0.00,60.00,Saturday
4973,-0.9673600273295188
4826,1652622.8789615443
4827,5.0596327128005217e-8
2,3, 1, 3, 0,22, 0.00,60.00,Saturday
4973,-0.9594640312098783
4826,1626516.2067109072
4827,5.985612006043084e-8
2,3, 1, 3, 0,23, 0.00,60.00,Saturday
4973,-0.9532643927451752
4826,1614978.5045691163
4827,5.2028781283297579e-8
2,3, 1, 3, 0,24, 0.00,60.00,Saturday
4973,-0.9473292037071555
4826,1549492.5988593423
4827,1.7547563402331435e-8
2,4, 1, 4, 0, 1, 0.00,60.00,Sunday
4973,-0.9438044827426654
4826,1686154.2695901769
4827,5.7748144425795548
2,4, 1, 4, 0, 2, 0.00,60.00,Sunday
4973,-0.9396128850795195
4826,1686985.6960243718
4827,3.1667468647356148e-8
2,4, 1, 4, 0, 3, 0.00,60.00,Sunday
4973,-0.93650347613993
4826,1668337.499439014
4827,4.5224624045658859e-8
2,4, 1, 4, 0, 4, 0.00,60.00,Sunday
4973,-0.9333829779857645
4826,1655098.3213002438
4827,5.576339390245266e-9
2,4, 1, 4, 0, 5, 0.00,60.00,Sunday
4973,-0.9299603737180441
4826,1646367.3557063798
4827,7.003677637840156e-8
2,4, 1, 4, 0, 6, 0.00,60.00,Sunday
4973,-0.9262747360336452
4826,1641994.3395491
4827,9.669065548223444e-9
2,4, 1, 4, 0, 7, 0.00,60.00,Sunday
4973,-0.9229942850484156
4826,1636141.241959897
4827,3.100240064668469e-8
2,4, 1, 4, 0, 8, 0.00,60.00,Sunday
4973,-0.9204240368594081
4826,1625674.9989296464
4827,6.864866008982063e-8
2,4, 1, 4, 0, 9, 0.00,60.00,Sunday
4973,-0.9198798370448917
4826,1664916.9052335239
4827,6.538130037370138e-8
2,4, 1, 4, 0,10, 0.00,60.00,Sunday
4973,-0.919850868237111
4826,1637776.739716473
4827,4.0108716348186138e-8
2,4, 1, 4, 0,11, 0.00,60.00,Sunday
4973,-0.9201320161209119
4826,1667335.0226836864
4827,8.604956747149117e-8
2,4, 1, 4, 0,12, 0.00,60.00,Sunday
4973,-0.9225653958040707
4826,1634633.336768992
4827,3.473701326583978e-8
2,4, 1, 4, 0,13, 0.00,60.00,Sunday
4973,-0.9234950005879214
4826,1593010.8826646629
4827,4.026219357911032e-8
2,4, 1, 4, 0,14, 0.00,60.00,Sunday
4973,-0.9236866726613738
4826,1538540.918436848
4827,2.7472424335428515e-8
2,4, 1, 4, 0,15, 0.00,60.00,Sunday
4973,-0.9207518959503522
4826,1432031.212050327
4827,2.384012987022288e-8
2,4, 1, 4, 0,16, 0.00,60.00,Sunday
4973,-0.9130563328694331
4826,1380682.4361453504
4827,3.744844434550032e-8
2,4, 1, 4, 0,17, 0.00,60.00,Sunday
4973,-0.9050691603864843
4826,1415525.5479721043
4827,3.23325366480276e-8
2,4, 1, 4, 0,18, 0.00,60.00,Sunday
4973,-0.9008999982414042
4826,1427555.7031981697
4827,3.836930773104541e-9
2,4, 1, 4, 0,19, 0.00,60.00,Sunday
4973,-0.8973354325953359
4826,1441657.6983222366
4827,6.650680006714538e-9
2,4, 1, 4, 0,20, 0.00,60.00,Sunday
4973,-0.8937023205151493
4826,1346547.4216706767
4827,3.616946742113214e-8
2,4, 1, 4, 0,21, 0.00,60.00,Sunday
4973,-0.8917020990636599
4826,1314519.8222511472
4827,3.765308065339923e-8
2,4, 1, 4, 0,22, 0.00,60.00,Sunday
4973,-0.8898498744850261
4826,1312246.37651287
4827,3.228137757105287e-8
2,4, 1, 4, 0,23, 0.00,60.00,Sunday
4973,-0.88790357977785
4826,1309038.6481223168
4827,3.744844434550032e-8
2,4, 1, 4, 0,24, 0.00,60.00,Sunday
4973,-0.8857503969537902
4826,1244320.5525755918
4827,1.9952040020143614e-8
2,5, 1, 5, 0, 1, 0.00,60.00,Monday
4973,-0.8858259948180366
4826,1378049.645620993
4827,0.5225566840681495
2,5, 1, 5, 0, 2, 0.00,60.00,Monday
4973,-0.8849765602435977
4826,1373445.1518335879
4827,3.4634695111890326e-8
2,5, 1, 5, 0, 3, 0.00,60.00,Monday
4973,-0.8851996360134202
4826,1388893.8846130418
4827,1.851958586485125e-8
2,5, 1, 5, 0, 4, 0.00,60.00,Monday
4973,-0.887231681300253
4826,1407570.9336471495
4827,4.9317350203637037e-8
2,5, 1, 5, 0, 5, 0.00,60.00,Monday
4973,-0.8904044325439587
4826,1420045.0935011507
4827,3.141167326248251e-8
2,5, 1, 5, 0, 6, 0.00,60.00,Monday
4973,-0.8932038007919466
4826,1433647.756271183
4827,4.6554760047001767e-8
2,5, 1, 5, 0, 7, 0.00,60.00,Monday
4973,-0.8957841631866074
4826,1447791.3329952732
4827,1.928697201947216e-8
2,5, 1, 5, 0, 8, 0.00,60.00,Monday
4973,-1.389290051388917
4826,0.0
4827,0.0
2,5, 1, 5, 0, 9, 0.00,60.00,Monday
4973,-1.6559350122079904
4826,0.0
4827,0.0
2,5, 1, 5, 0,10, 0.00,60.00,Monday
4973,-1.6757627288684148
4826,0.0
4827,0.0
2,5, 1, 5, 0,11, 0.00,60.00,Monday
4973,-1.686313049516728
4826,0.0
4827,0.0
2,5, 1, 5, 0,12, 0.00,60.00,Monday
4973,-1.694323550109928
4826,0.0
4827,0.0
2,5, 1, 5, 0,13, 0.00,60.00,Monday
4973,-1.6976927253902857
4826,0.0
4827,0.0
2,5, 1, 5, 0,14, 0.00,60.00,Monday
4973,-1.6939682257391636
4826,0.0
4827,0.0
2,5, 1, 5, 0,15, 0.00,60.00,Monday
4973,-1.6879869586205885
4826,0.0
4827,0.0
2,5, 1, 5, 0,16, 0.00,60.00,Monday
4973,-1.6800795422357662
4826,0.0
4827,0.0
2,5, 1, 5, 0,17, 0.00,60.00,Monday
4973,-1.6768385124044792
4826,0.0
4827,0.0
2,5, 1, 5, 0,18, 0.00,60.00,Monday
4973,-1.6752976528677329
4826,0.0
4827,0.0
2,5, 1, 5, 0,19, 0.00,60.00,Monday
4973,-1.6766014896701336
4826,0.0
4827,0.0
2,5, 1, 5, 0,20, 0.00,60.00,Monday
4973,-1.669221122820141
4826,0.0
4827,0.0
2,5, 1, 5, 0,21, 0.00,60.00,Monday
4973,-1.6836497454134727
4826,0.0
4827,0.0
2,5, 1, 5, 0,22, 0.00,60.00,Monday
4973,-1.1719980627037634
4826,2480720.342163826
4827,2.3712232177786065e-8
2,5, 1, 5, 0,23, 0.00,60.00,Monday
4973,-0.9932733576782558
4826,1675911.0707270597
4827,2.36866526392987e-8
2,5, 1, 5, 0,24, 0.00,60.00,Monday
4973,-0.9818466694453789
4826,1570561.0591871103
4827,5.341007636161521e-8
2,6, 1, 6, 0, 1, 0.00,60.00,Tuesday
4973,-0.9731051645778734
4826,1759678.707527583
4827,5.145185734477877
2,6, 1, 6, 0, 2, 0.00,60.00,Tuesday
4973,-0.9659974640111485
4826,1760492.5643832167
4827,1.1101519703515806e-8
2,6, 1, 6, 0, 3, 0.00,60.00,Tuesday
4973,-0.9583132522271891
4826,1718629.4162658668
4827,1.6115109247039073e-8
2,6, 1, 6, 0, 4, 0.00,60.00,Tuesday
4973,-0.950970868044267
4826,1689428.2544701547
4827,1.596163201611489e-8
2,6, 1, 6, 0, 5, 0.00,60.00,Tuesday
4973,-0.9442560192903027
4826,1677362.1529224744
4827,4.261551111994777e-8
2,6, 1, 6, 0, 6, 0.00,60.00,Tuesday
4973,-0.9380562704747834
4826,1661889.0427750245
4827,3.17697868013056e-8
2,6, 1, 6, 0, 7, 0.00,60.00,Tuesday
4973,-0.9328705720902646
4826,1648090.2856691536
4827,8.21614776214119e-8
2,6, 1, 6, 0, 8, 0.00,60.00,Tuesday
4973,-1.4252944241750548
4826,0.0
4827,0.0
2,6, 1, 6, 0, 9, 0.00,60.00,Tuesday
4973,-1.7019245475743906
4826,0.0
4827,0.0
2,6, 1, 6, 0,10, 0.00,60.00,Tuesday
4973,-1.7028844406999136
4826,0.0
4827,0.0
2,6, 1, 6, 0,11, 0.00,60.00,Tuesday
4973,-1.687433716031719
4826,0.0
4827,0.0
2,6, 1, 6, 0,12, 0.00,60.00,Tuesday
4973,-1.6680408138241978
4826,0.0
4827,0.0
2,6, 1, 6, 0,13, 0.00,60.00,Tuesday
4973,-1.636696715310281
4826,0.0
4827,0.0
2,6, 1, 6, 0,14, 0.00,60.00,Tuesday
4973,-1.5641285708075708
4826,0.0
4827,0.0
2,6, 1, 6, 0,15, 0.00,60.00,Tuesday
4973,-1.5250811358647734
4826,0.0
4827,0.0
2,6, 1, 6, 0,16, 0.00,60.00,Tuesday
4973,-1.4823156819405839
4826,0.0
4827,0.0
2,6, 1, 6, 0,17, 0.00,60.00,Tuesday
4973,-1.448379517507581
4826,0.0
4827,0.0
2,6, 1, 6, 0,18, 0.00,60.00,Tuesday
4973,-1.448955382268141
4826,0.0
4827,0.0
2,6, 1, 6, 0,19, 0.00,60.00,Tuesday
4973,-1.4837224516473884
4826,0.0
4827,0.0
2,6, 1, 6, 0,20, 0.00,60.00,Tuesday
4973,-1.51067754261215
4826,0.0
4827,0.0
2,6, 1, 6, 0,21, 0.00,60.00,Tuesday
4973,-1.543640398858085
4826,0.0
4827,0.0
2,6, 1, 6, 0,22, 0.00,60.00,Tuesday
4973,-1.099769996962574
4826,2180077.1260064586
4827,4.796333996637259e-8
2,6, 1, 6, 0,23, 0.00,60.00,Tuesday
4973,-0.9451811719824804
4826,1515340.3753157899
4827,5.3512394515564668e-8
2,6, 1, 6, 0,24, 0.00,60.00,Tuesday
4973,-0.9361561629959336
4826,1427365.5940879568
4827,2.496562956366688e-8
2,7, 1, 7, 0, 1, 0.00,60.00,Wednesday
4973,-0.9324286628284358
4826,1630412.7065612537
4827,5.278812815439388e-8
2,7, 1, 7, 0, 2, 0.00,60.00,Wednesday
4973,-0.9308645731052856
4826,1651721.231338962
4827,4.696403266279958e-8
2,7, 1, 7, 0, 3, 0.00,60.00,Wednesday
4973,-0.9313375425273811
4826,1686569.845498638
4827,4.271782927389722e-8
2,7, 1, 7, 0, 4, 0.00,60.00,Wednesday
4973,-0.933613998935813
4826,1737724.3720830805
4827,6.220943760126829e-8
2,7, 1, 7, 0, 5, 0.00,60.00,Wednesday
4973,-0.9378668035111814
4826,1803603.8925005093
4827,2.552837941038888e-8
2,7, 1, 7, 0, 6, 0.00,60.00,Wednesday
4973,-0.9438259403561998
4826,1867018.7354665928
4827,6.589289114344865e-8
2,7, 1, 7, 0, 7, 0.00,60.00,Wednesday
4973,-0.9497678402588889
4826,1918355.601694316
4827,2.220303940703161e-8
2,7, 1, 7, 0, 8, 0.00,60.00,Wednesday
4973,-1.5690677650977894
4826,0.0
4827,0.0
2,7, 1, 7, 0, 9, 0.00,60.00,Wednesday
4973,-1.8956783689593629
4826,0.0
4827,0.0
2,7, 1, 7, 0,10, 0.00,60.00,Wednesday
4973,-1.9201917486829355
4826,0.0
4827,0.0
2,7, 1, 7, 0,11, 0.00,60.00,Wednesday
4973,-1.9217872381634196
4826,0.0
4827,0.0
2,7, 1, 7, 0,12, 0.00,60.00,Wednesday
4973,-1.8994348225371805
4826,0.0
4827,0.0
2,7, 1, 7, 0,13, 0.00,60.00,Wednesday
4973,-1.838106096978505
4826,0.0
4827,0.0
2,7, 1, 7, 0,14, 0.00,60.00,Wednesday
4973,-1.7410476175367145
4826,0.0
4827,0.0
2,7, 1, 7, 0,15, 0.00,60.00,Wednesday
4973,-1.6419464375945985
4826,0.0
4827,0.0
2,7, 1, 7, 0,16, 0.00,60.00,Wednesday
4973,-1.4896958770099485
4826,0.0
4827,0.0
2,7, 1, 7, 0,17, 0.00,60.00,Wednesday
4973,-1.419111534243971
4826,0.0
4827,0.0
2,7, 1, 7, 0,18, 0.00,60.00,Wednesday
4973,-1.4319127215346197
4826,0.0
4827,0.0
2,7, 1, 7, 0,19, 0.00,60.00,Wednesday
4973,-1.470833526078312
4826,0.0
4827,0.0
2,7, 1, 7, 0,20, 0.00,60.00,Wednesday
4973,-1.4982267119506115
4826,0.0
4827,0.0
2,7, 1, 7, 0,21, 0.00,60.00,Wednesday
4973,-1.5243451204344028
4826,0.0
4827,0.0
2,7, 1, 7, 0,22, 0.00,60.00,Wednesday
4973,-1.1081393532745947
4826,2050616.2092080573
4827,2.9378952604020016e-8
2,7, 1, 7, 0,23, 0.00,60.00,Wednesday
4973,-0.9651521785484523
4826,1450551.9581361295
4827,1.4938450476620347e-8
2,7, 1, 7, 0,24, 0.00,60.00,Wednesday
4973,-0.956043595703817
4826,1370574.596963033
4827,9.669065548223444e-9
2,8, 1, 8, 0, 1, 0.00,60.00,Thursday
4973,-0.9515593064822011
4826,1577905.593915788
4827,3.768565630497716e-8
2,8, 1, 8, 0, 2, 0.00,60.00,Thursday
4973,-0.9475492288757738
4826,1590973.9209162016
4827,8.89144757820759e-8
2,8, 1, 8, 0, 3, 0.00,60.00,Thursday
4973,-0.9441092492019523
4826,1617632.8008280213
4827,2.2868107407703066e-8
2,8, 1, 8, 0, 4, 0.00,60.00,Thursday
4973,-0.9412804415955725
4826,1641116.788869669
4827,5.0596327128005217e-8
2,8, 1, 8, 0, 5, 0.00,60.00,Thursday
4973,-0.9387978574932898
4826,1652988.5165421046
4827,2.2509993868879975e-8
2,8, 1, 8, 0, 6, 0.00,60.00,Thursday
4973,-0.9361891945357701
4826,1663685.5739107128
4827,5.4586735132033939e-8
2,8, 1, 8, 0, 7, 0.00,60.00,Thursday
4973,-0.9344501114849098
4826,1664600.223085802
4827,1.1868905858136714e-8
2,8, 1, 8, 0, 8, 0.00,60.00,Thursday
4973,-1.4371137858021706
4826,0.0
4827,0.0
2,8, 1, 8, 0, 9, 0.00,60.00,Thursday
4973,-1.7148047046409525
4826,0.0
4827,0.0
2,8, 1, 8, 0,10, 0.00,60.00,Thursday
4973,-1.7171183793084933
4826,0.0
4827,0.0
2,8, 1, 8, 0,11, 0.00,60.00,Thursday
4973,-1.706949781314431
4826,0.0
4827,0.0
2,8, 1, 8, 0,12, 0.00,60.00,Thursday
4973,-1.685320428738757
4826,0.0
4827,0.0
2,8, 1, 8, 0,13, 0.00,60.00,Thursday
4973,-1.6560254440968892
4826,0.0
4827,0.0
2,8, 1, 8, 0,14, 0.00,60.00,Thursday
4973,-1.6219835480610883
4826,0.0
4827,0.0
2,8, 1, 8, 0,15, 0.00,60.00,Thursday
4973,-1.5895574482481714
4826,0.0
4827,0.0
2,8, 1, 8, 0,16, 0.00,60.00,Thursday
4973,-1.5612792671340215
4826,0.0
4827,0.0
2,8, 1, 8, 0,17, 0.00,60.00,Thursday
4973,-1.5351941256968039
4826,0.0
4827,0.0
2,8, 1, 8, 0,18, 0.00,60.00,Thursday
4973,-1.5446063508878732
4826,0.0
4827,0.0
2,8, 1, 8, 0,19, 0.00,60.00,Thursday
4973,-1.5694704654492409
4826,0.0
4827,0.0
2,8, 1, 8, 0,20, 0.00,60.00,Thursday
4973,-1.5866729280699668
4826,0.0
4827,0.0
2,8, 1, 8, 0,21, 0.00,60.00,Thursday
4973,-1.601531031698777
4826,0.0
4827,0.0
2,8, 1, 8, 0,22, 0.00,60.00,Thursday
4973,-1.1296742453710045
4826,2217486.713043353
4827,3.145601112919394e-8
2,8, 1, 8, 0,23, 0.00,60.00,Thursday
4973,-0.9655770334094294
4826,1501234.704268483
4827,2.716546987358015e-8
2,8, 1, 8, 0,24, 0.00,60.00,Thursday
4973,-0.9513897292311397
4826,1417478.9739206299
4827,3.7346126191550869e-9
2,9, 1, 9, 0, 1, 0.00,60.00,Friday
4973,-0.9452673323572818
4826,1636523.1999473633
4827,5.5149484978755939e-8
2,9, 1, 9, 0, 2, 0.00,60.00,Friday
4973,-0.9430650173362247
4826,1666256.258148535
4827,4.374101081339177e-8
2,9, 1, 9, 0, 3, 0.00,60.00,Friday
4973,-0.9411978041949085
4826,1675183.6558251917
4827,1.2533973858808168e-8
2,9, 1, 9, 0, 4, 0.00,60.00,Friday
4973,-0.9385031392834232
4826,1666781.6949938613
4827,3.70391717297025e-8
2,9, 1, 9, 0, 5, 0.00,60.00,Friday
4973,-0.9349469720235395
4826,1656543.1947802467
4827,3.356035449542105e-8
2,9, 1, 9, 0, 6, 0.00,60.00,Friday
4973,-0.9313686972060465
4826,1649051.5182050449
4827,4.640128281607758e-8
2,9, 1, 9, 0, 7, 0.00,60.00,Friday
4973,-0.9287225459119926
4826,1641848.881354698
4827,3.616946742113214e-8
2,9, 1, 9, 0, 8, 0.00,60.00,Friday
4973,-1.4152956195199918
4826,0.0
4827,0.0
2,9, 1, 9, 0, 9, 0.00,60.00,Friday
4973,-1.7007683284210525
4826,0.0
4827,0.0
2,9, 1, 9, 0,10, 0.00,60.00,Friday
4973,-1.7237835401212212
4826,0.0
4827,0.0
2,9, 1, 9, 0,11, 0.00,60.00,Friday
4973,-1.7268054828913189
4826,0.0
4827,0.0
2,9, 1, 9, 0,12, 0.00,60.00,Friday
4973,-1.724776670560028
4826,0.0
4827,0.0
2,9, 1, 9, 0,13, 0.00,60.00,Friday
4973,-1.7222417207413435
4826,0.0
4827,0.0
2,9, 1, 9, 0,14, 0.00,60.00,Friday
4973,-1.7146628455036715
4826,0.0
4827,0.0
2,9, 1, 9, 0,15, 0.00,60.00,Friday
4973,-1.7110388565523163
4826,0.0
4827,0.0
2,9, 1, 9, 0,16, 0.00,60.00,Friday
4973,-1.7073658716752534
4826,0.0
4827,0.0
2,9, 1, 9, 0,17, 0.00,60.00,Friday
4973,-1.7103078737122209
4826,0.0
4827,0.0
2,9, 1, 9, 0,18, 0.00,60.00,Friday
4973,-1.7193484751318567
4826,0.0
4827,0.0
2,9, 1, 9, 0,19, 0.00,60.00,Friday
4973,-1.7259134556561536
4826,0.0
4827,0.0
2,9, 1, 9, 0,20, 0.00,60.00,Friday
4973,-1.717005252373143
4826,0.0
4827,0.0
2,9, 1, 9, 0,21, 0.00,60.00,Friday
4973,-1.7159273082434144
4826,0.0
4827,0.0
2,9, 1, 9, 0,22, 0.00,60.00,Friday
4973,-1.1832124935633195
4826,2547253.1272160948
4827,2.967908585560508e-8
2,9, 1, 9, 0,23, 0.00,60.00,Friday
4973,-1.0025405930640404
4826,1715394.6875683109
4827,2.752358341240324e-8
2,9, 1, 9, 0,24, 0.00,60.00,Friday
4973,-0.9893263994004511
4826,1581370.9479135979
4827,5.417746251623612e-8
2,10, 1,10, 0, 1, 0.00,60.00,Saturday
4973,-0.9816904061032583
4826,1741101.1037026966
4827,1.8710506608962468
2,10, 1,10, 0, 2, 0.00,60.00,Saturday
4973,-0.9758338603778176
4826,1719203.2292036275
4827,5.878177944396157e-8
2,10, 1,10, 0, 3, 0.00,60.00,Saturday
4973,-0.9704956828173555
4826,1685198.6932378628
4827,7.898961484897882e-8
2,10, 1,10, 0, 4, 0.00,60.00,Saturday
4973,-0.9652606225177071
4826,1660103.075846855
4827,3.519744495861232e-8
2,10, 1,10, 0, 5, 0.00,60.00,Saturday
4973,-0.9599541420425095
4826,1645901.63960572
4827,4.665707820095122e-8
2,10, 1,10, 0, 6, 0.00,60.00,Saturday
4973,-0.9550822982149172
4826,1638869.6205717312
4827,1.8110313249053435e-8
2,10, 1,10, 0, 7, 0.00,60.00,Saturday
4973,-0.9511063723713704
4826,1631131.2386981128
4827,2.2663471099804157e-8
2,10, 1,10, 0, 8, 0.00,60.00,Saturday
4973,-0.9480443586539551
4826,1617033.0103570745
4827,6.009656772221206e-8
2,10, 1,10, 0, 9, 0.00,60.00,Saturday
4973,-0.9458461158846252
4826,1669390.2098736885
4827,1.2687451089732349e-8
2,10, 1,10, 0,10, 0.00,60.00,Saturday
4973,-0.944005989173373
4826,1646019.9849172552
4827,2.8751401259796695e-8
2,10, 1,10, 0,11, 0.00,60.00,Saturday
4973,-0.9425171952888563
4826,1658021.0372912556
4827,1.8775381249724888e-8
2,10, 1,10, 0,12, 0.00,60.00,Saturday
4973,-0.940427128684344
4826,1592913.8804061115
4827,2.332853910047561e-8
2,10, 1,10, 0,13, 0.00,60.00,Saturday
4973,-0.9353653199984646
4826,1505242.413634459
4827,1.580815478519071e-8
2,10, 1,10, 0,14, 0.00,60.00,Saturday
4973,-0.9341699995564629
4826,1434774.9102746314
4827,2.716546987358015e-8
2,10, 1,10, 0,15, 0.00,60.00,Saturday
4973,-0.9264028774295623
4826,1283792.6042160833
4827,3.744844434550032e-8
2,10, 1,10, 0,16, 0.00,60.00,Saturday
4973,-0.9107133667384633
4826,1191942.227822627
4827,3.749960342247505e-8
2,10, 1,10, 0,17, 0.00,60.00,Saturday
4973,-0.8931231157229003
4826,1212832.7345519136
4827,2.4863311409717427e-8
2,10, 1,10, 0,18, 0.00,60.00,Saturday
4973,-0.8733951741230336
4826,1176105.8807999066
4827,4.128537511860486e-8
2,10, 1,10, 0,19, 0.00,60.00,Saturday
4973,-0.8780540854140021
4826,1248576.8149718294
4827,1.0692247087717988e-8
2,10, 1,10, 0,20, 0.00,60.00,Saturday
4973,-0.8796652343426293
4826,1179324.0052674537
4827,5.6428461903124119e-8
2,10, 1,10, 0,21, 0.00,60.00,Saturday
4973,-0.8799596697688442
4826,1164530.9834673727
4827,1.9389290173421615e-8
2,10, 1,10, 0,22, 0.00,60.00,Saturday
4973,-0.8759941530509142
4826,1156477.2498431963
4827,6.277218744799029e-8
2,10, 1,10, 0,23, 0.00,60.00,Saturday
4973,-0.8697556622527365
4826,1159692.4720858799
4827,4.4508396968012679e-9
2,10, 1,10, 0,24, 0.00,60.00,Saturday
4973,-0.863932886958561
4826,1140886.5414665896
4827,4.143885234952904e-8
2,11, 1,11, 0, 1, 0.00,60.00,Sunday
4973,-0.8650374065367221
4826,1343316.7185870007
4827,3.891987684515438e-8
2,11, 1,11, 0, 2, 0.00,60.00,Sunday
4973,-0.8703988772525656
4826,1409995.817672653
4827,1.764988155628089e-8
2,11, 1,11, 0, 3, 0.00,60.00,Sunday
4973,-0.877163938063685
4826,1445535.9499935997
4827,1.9184653865522706e-8
2,11, 1,11, 0, 4, 0.00,60.00,Sunday
4973,-0.8809473636269727
4826,1459229.95471748
4827,3.7346126191550869e-8
2,11, 1,11, 0, 5, 0.00,60.00,Sunday
4973,-0.8824149790681584
4826,1475212.845957274
4827,2.1793766791233794e-8
2,11, 1,11, 0, 6, 0.00,60.00,Sunday
4973,-0.8845972985186392
4826,1495319.4398056358
4827,6.047002898412757e-8
2,11, 1,11, 0, 7, 0.00,60.00,Sunday
4973,-0.8876077883085934
4826,1512334.891487348
4827,2.921183295256924e-8
2,11, 1,11, 0, 8, 0.00,60.00,Sunday
4973,-0.8891836510275726
4826,1497096.4480970253
4827,4.561172772810096e-8
2,11, 1,11, 0, 9, 0.00,60.00,Sunday
4973,-0.8881291667061594
4826,1477820.402731614
4827,2.7421265258453788e-8
2,11, 1,11, 0,10, 0.00,60.00,Sunday
4973,-0.8831202112332863
4826,1401089.4298128153
4827,3.448121788096614e-8
2,11, 1,11, 0,11, 0.00,60.00,Sunday
4973,-0.8764581295456053
4826,1401646.826983822
4827,1.9133494788547979e-8
2,11, 1,11, 0,12, 0.00,60.00,Sunday
4973,-0.8709555621349642
4826,1362151.0941676913
4827,2.148681232938543e-8
2,11, 1,11, 0,13, 0.00,60.00,Sunday
4973,-0.8670061210195039
4826,1330091.6600517838
4827,2.0054358174093069e-8
2,11, 1,11, 0,14, 0.00,60.00,Sunday
4973,-0.8636754270066606
4826,1309046.695805659
4827,4.072262527188286e-8
2,11, 1,11, 0,15, 0.00,60.00,Sunday
4973,-0.8604569087411421
4826,1219224.6524592429
4827,3.207674126315396e-8
2,11, 1,11, 0,16, 0.00,60.00,Sunday
4973,-0.8567576176511353
4826,1189029.5575162858
4827,3.964828465541359e-8
2,11, 1,11, 0,17, 0.00,60.00,Sunday
4973,-0.8550750080383884
4826,1229196.6292287638
4827,5.0238213589182126e-8
2,11, 1,11, 0,18, 0.00,60.00,Sunday
4973,-0.8547806932139784
4826,1219797.5174225467
4827,3.6834535421803596e-8
2,11, 1,11, 0,19, 0.00,60.00,Sunday
4973,-0.8526477938333883
4826,1198390.5354820393
4827,3.5913672036258507e-8
2,11, 1,11, 0,20, 0.00,60.00,Sunday
4973,-0.8502638104159684
4826,1059213.4596640587
4827,3.2102320801641329e-8
2,11, 1,11, 0,21, 0.00,60.00,Sunday
4973,-0.8478868145281863
4826,1004442.915781229
4827,1.7956836018129253e-8
2,11, 1,11, 0,22, 0.00,60.00,Sunday
4973,-0.845333458338768
4826,988417.4823647374
4827,1.8673063095775434e-8
2,11, 1,11, 0,23, 0.00,60.00,Sunday
4973,-0.8445898378317834
4826,977576.2236790174
4827,2.5426061256439426e-8
2,11, 1,11, 0,24, 0.00,60.00,Sunday
4973,-0.8440882540576487
4826,917452.2986706251
4827,1.1229417395952624e-8
2,12, 1,12, 0, 1, 0.00,60.00,Monday
4973,-0.8452902223272159
4826,1060616.1847510252
4827,3.8891556641829086e-8
2,12, 1,12, 0, 2, 0.00,60.00,Monday
4973,-0.84660339391277
4826,1072701.9530091023
4827,3.709033080667723e-8
2,12, 1,12, 0, 3, 0.00,60.00,Monday
4973,-0.8486400466474171
4826,1104643.7961205315
4827,2.900719664467033e-8
2,12, 1,12, 0, 4, 0.00,60.00,Monday
4973,-0.8501797476524557
4826,1133877.5250432518
4827,4.3229420043644498e-8
2,12, 1,12, 0, 5, 0.00,60.00,Monday
4973,-0.8501635332215433
4826,1160691.980888384
4827,4.1796965888352136e-8
2,12, 1,12, 0, 6, 0.00,60.00,Monday
4973,-0.8486023140331858
4826,1185598.9737518128
4827,4.108073881070595e-8
2,12, 1,12, 0, 7, 0.00,60.00,Monday
4973,-0.8459244359999214
4826,1202578.0080413977
4827,3.4634695111890326e-8
2,12, 1,12, 0, 8, 0.00,60.00,Monday
4973,-1.2784724670604677
4826,0.0
4827,0.0
2,12, 1,12, 0, 9, 0.00,60.00,Monday
4973,-1.5071642543883679
4826,0.0
4827,0.0
2,12, 1,12, 0,10, 0.00,60.00,Monday
4973,-1.509929553500912
4826,0.0
4827,0.0
2,12, 1,12, 0,11, 0.00,60.00,Monday
4973,-1.5113440877966209
4826,0.0
4827,0.0
2,12, 1,12, 0,12, 0.00,60.00,Monday
4973,-1.5171987496931992
4826,0.0
4827,0.0
2,12, 1,12, 0,13, 0.00,60.00,Monday
4973,-1.5200543877099447
4826,0.0
4827,0.0
2,12, 1,12, 0,14, 0.00,60.00,Monday
4973,-1.5259168592437722
4826,0.0
4827,0.0
2,12, 1,12, 0,15, 0.00,60.00,Monday
4973,-1.524595316008506
4826,0.0
4827,0.0
2,12, 1,12, 0,16, 0.00,60.00,Monday
4973,-1.5162681595150168
4826,0.0
4827,0.0
2,12, 1,12, 0,17, 0.00,60.00,Monday
4973,-1.5058662445037443
4826,0.0
4827,0.0
2,12, 1,12, 0,18, 0.00,60.00,Monday
4973,-1.4968325165258323
4826,0.0
4827,0.0
2,12, 1,12, 0,19, 0.00,60.00,Monday
4973,-1.495696805653874
4826,0.0
4827,0.0
2,12, 1,12, 0,20, 0.00,60.00,Monday
4973,-1.4902540982505717
4826,0.0
4827,0.0
2,12, 1,12, 0,21, 0.00,60.00,Monday
4973,-1.493814014731643
4826,0.0
4827,0.0
2,12, 1,12, 0,22, 0.00,60.00,Monday
4973,-1.0597831672749956
4826,1915287.704055558
4827,5.5084683481254618e-8
2,12, 1,12, 0,23, 0.00,60.00,Monday
4973,-0.9131157114680524
4826,1251687.679423851
4827,1.2789769243681804e-8
2,12, 1,12, 0,24, 0.00,60.00,Monday
4973,-0.9024861191884337
4826,1143241.519407835
4827,2.1793766791233794e-8
2,13, 1,13, 0, 1, 0.00,60.00,Tuesday
4973,-0.8960168058274118
4826,1321837.3006899022
4827,4.090435272800619
2,13, 1,13, 0, 2, 0.00,60.00,Tuesday
4973,-0.8905578453401426
4826,1313759.3652508343
4827,5.9037574828835207e-8
2,13, 1,13, 0, 3, 0.00,60.00,Tuesday
4973,-0.8857528624601732
4826,1308032.1934123084
4827,3.0951241569709967e-8
2,13, 1,13, 0, 4, 0.00,60.00,Tuesday
4973,-0.8814820168299797
4826,1302768.7321389148
4827,6.855316314613447e-8
2,13, 1,13, 0, 5, 0.00,60.00,Tuesday
4973,-0.8774282322423591
4826,1302312.6787126442
4827,6.972982191655319e-8
2,13, 1,13, 0, 6, 0.00,60.00,Tuesday
4973,-0.8735018651092471
4826,1306045.5428922116
4827,8.031975085032173e-9
2,13, 1,13, 0, 7, 0.00,60.00,Tuesday
4973,-0.8707471546683584
4826,1307430.522136444
4827,1.4631496014771983e-8