Program Version,EnergyPlus, Version 8.7.0-78a111df4a, YMD=2019.05.25 03:30
1,5,Environment Title[],Latitude[deg],Longitude[deg],Time Zone[],Elevation[m]
2,6,Day of Simulation[],Month[],Day of Month[],DST Indicator[1=yes 0=no],Hour[],StartMinute[],EndMinute[],DayType
3,3,Cumulative Day of Simulation[],Month[],Day of Month[],DST Indicator[1=yes 0=no],DayType  ! When Daily Report Variables Requested
4,2,Cumulative Days of Simulation[],Month[]  ! When Monthly Report Variables Requested
5,1,Cumulative Days of Simulation[] ! When Run Period Report Variables Requested
4826,1,BEDROOM2.2,Zone Ideal Loads Zone Total Heating Energy [J] !Hourly
4827,1,BEDROOM2.2,Zone Ideal Loads Zone Total Cooling Energy [J] !Hourly
4973,1,BEDROOM2.2,Zone Thermal Comfort Fanger Model PMV [] !Hourly
End of Data Dictionary
1,RUNPERIOD,  29.58, 106.47,   8.00, 259.10
2,1, 1, 1, 0, 1, 0.00,60.00,Thursday
4973,-1.1306006822068198
4826,2645916.7606787888
4827,8.772076398599893e-8
2,1, 1, 1, 0, 2, 0.00,60.00,Thursday
4973,-1.1222897519401703
4826,2649272.858235718
4827,8.154756869771518e-8
2,1, 1, 1, 0, 3, 0.00,60.00,Thursday
4973,-1.113887811854006
4826,2580757.1927742834
4827,1.3720864444621839e-7
2,1, 1, 1, 0, 4, 0.00,60.00,Thursday
4973,-1.107094704366025
4826,2546411.3711484645
4827,8.113829608191736e-8
2,1, 1, 1, 0, 5, 0.00,60.00,Thursday
4973,-1.1038272323150047
4826,2564115.607540407
4827,8.379856808460318e-8
2,1, 1, 1, 0, 6, 0.00,60.00,Thursday
4973,-1.1037923909733527
4826,2588135.52341655
4827,8.113829608191736e-8
2,1, 1, 1, 0, 7, 0.00,60.00,Thursday
4973,-1.1059277662825
4826,2607643.1929158729
4827,8.226379577536136e-8
2,1, 1, 1, 0, 8, 0.00,60.00,Thursday
4973,-1.7533708160557336
4826,0.0
4827,0.0
2,1, 1, 1, 0, 9, 0.00,60.00,Thursday
4973,-2.170779276942527
4826,0.0
4827,0.0
2,1, 1, 1, 0,10, 0.00,60.00,Thursday
4973,-2.2108585303979515
4826,0.0
4827,0.0
2,1, 1, 1, 0,11, 0.00,60.00,Thursday
4973,-2.2201494509685
4826,0.0
4827,0.0
2,1, 1, 1, 0,12, 0.00,60.00,Thursday
4973,-2.218411405031189
4826,0.0
4827,0.0
2,1, 1, 1, 0,13, 0.00,60.00,Thursday
4973,-2.204020664044564
4826,0.0
4827,0.0
2,1, 1, 1, 0,14, 0.00,60.00,Thursday
4973,-2.1713909919732634
4826,0.0
4827,0.0
2,1, 1, 1, 0,15, 0.00,60.00,Thursday
4973,-2.1276547417844675
4826,0.0
4827,0.0
2,1, 1, 1, 0,16, 0.00,60.00,Thursday
4973,-2.0685044518594699
4826,0.0
4827,0.0
2,1, 1, 1, 0,17, 0.00,60.00,Thursday
4973,-1.9981142176148708
4826,0.0
4827,0.0
2,1, 1, 1, 0,18, 0.00,60.00,Thursday
4973,-1.9375097777736188
4826,0.0
4827,0.0
2,1, 1, 1, 0,19, 0.00,60.00,Thursday
4973,-1.8880026515866915
4826,0.0
4827,0.0
2,1, 1, 1, 0,20, 0.00,60.00,Thursday
4973,-1.8574522835727568
4826,0.0
4827,0.0
2,1, 1, 1, 0,21, 0.00,60.00,Thursday
4973,-1.8939509258936714
4826,0.0
4827,0.0
2,1, 1, 1, 0,22, 0.00,60.00,Thursday
4973,-1.3408737625987595
4826,3235122.0882094099
4827,3.8154439607751559e-8
2,1, 1, 1, 0,23, 0.00,60.00,Thursday
4973,-1.1433796365260894
4826,2553944.6760075038
4827,8.011511454242282e-8
2,1, 1, 1, 0,24, 0.00,60.00,Thursday
4973,-1.1365694946311889
4826,2434833.551011878
4827,3.069544618483633e-10
2,2, 1, 2, 0, 1, 0.00,60.00,Friday
4973,-1.1324481898355159
4826,2615496.0513420675
4827,1.1434611802873075e-7
2,2, 1, 2, 0, 2, 0.00,60.00,Friday
4973,-1.1295449352535423
4826,2606607.236612214
4827,1.1306156011414714e-7
2,2, 1, 2, 0, 3, 0.00,60.00,Friday
4973,-1.1278256525810085
4826,2605618.658548441
4827,3.949480742448941e-8
2,2, 1, 2, 0, 4, 0.00,60.00,Friday
4973,-1.12442372601846
4826,2598763.7841488218
4827,6.845084499218501e-8
2,2, 1, 2, 0, 5, 0.00,60.00,Friday
4973,-1.1204506236111054
4826,2586434.176367839
4827,8.359393177670427e-8
2,2, 1, 2, 0, 6, 0.00,60.00,Friday
4973,-1.1166779145137327
4826,2579453.4036481746
4827,9.83277459454257e-8
2,2, 1, 2, 0, 7, 0.00,60.00,Friday
4973,-1.1131341055064832
4826,2569104.953598455
4827,6.507434591185302e-8
2,2, 1, 2, 0, 8, 0.00,60.00,Friday
4973,-1.7209561903218523
4826,0.0
4827,0.0
2,2, 1, 2, 0, 9, 0.00,60.00,Friday
4973,-2.091960670898972
4826,0.0
4827,0.0
2,2, 1, 2, 0,10, 0.00,60.00,Friday
4973,-2.0764832932413945
4826,0.0
4827,0.0
2,2, 1, 2, 0,11, 0.00,60.00,Friday
4973,-2.062166108623897
4826,0.0
4827,0.0
2,2, 1, 2, 0,12, 0.00,60.00,Friday
4973,-2.052072037443848
4826,0.0
4827,0.0
2,2, 1, 2, 0,13, 0.00,60.00,Friday
4973,-2.0401266144954306
4826,0.0
4827,0.0
2,2, 1, 2, 0,14, 0.00,60.00,Friday
4973,-2.0266573613356204
4826,0.0
4827,0.0
2,2, 1, 2, 0,15, 0.00,60.00,Friday
4973,-1.9995481018538919
4826,0.0
4827,0.0
2,2, 1, 2, 0,16, 0.00,60.00,Friday
4973,-1.9625589042017522
4826,0.0
4827,0.0
2,2, 1, 2, 0,17, 0.00,60.00,Friday
4973,-1.9388690966558795
4826,0.0
4827,0.0
2,2, 1, 2, 0,18, 0.00,60.00,Friday
4973,-1.9594356785325387
4826,0.0
4827,0.0
2,2, 1, 2, 0,19, 0.00,60.00,Friday
4973,-2.000301591383808
4826,0.0
4827,0.0
2,2, 1, 2, 0,20, 0.00,60.00,Friday
4973,-2.022785996311686
4826,0.0
4827,0.0
2,2, 1, 2, 0,21, 0.00,60.00,Friday
4973,-2.0469865201159038
4826,0.0
4827,0.0
2,2, 1, 2, 0,22, 0.00,60.00,Friday
4973,-1.3834190462947405
4826,3596468.701315551
4827,7.443304639309645e-8
2,2, 1, 2, 0,23, 0.00,60.00,Friday
4973,-1.147604138691134
4826,2561048.9028184006
4827,9.515588317299262e-9
2,2, 1, 2, 0,24, 0.00,60.00,Friday
4973,-1.1292633014696312
4826,2436602.2061561045
4827,4.972662281943485e-8
2,3, 1, 3, 0, 1, 0.00,60.00,Saturday
4973,-1.1214731344129648
4826,2637065.3844937884
4827,7.139202683571389e-8
2,3, 1, 3, 0, 2, 0.00,60.00,Saturday
4973,-1.11870218705179
4826,2668407.4453734566
4827,9.505356501904316e-8
2,3, 1, 3, 0, 3, 0.00,60.00,Saturday
4973,-1.1207584116611016
4826,2680394.609150065
4827,1.270791472052224e-7
2,3, 1, 3, 0, 4, 0.00,60.00,Saturday
4973,-1.1227367462969054
4826,2678790.8640651728
4827,5.9037574828835207e-8
2,3, 1, 3, 0, 5, 0.00,60.00,Saturday
4973,-1.1233962015916006
4826,2668443.44571017
4827,7.27482074580621e-8
2,3, 1, 3, 0, 6, 0.00,60.00,Saturday
4973,-1.122681165446629
4826,2644320.0868856448
4827,1.1960992196691223e-7
2,3, 1, 3, 0, 7, 0.00,60.00,Saturday
4973,-1.1202139899991322
4826,2602420.1032395886
4827,6.978098099352792e-8
2,3, 1, 3, 0, 8, 0.00,60.00,Saturday
4973,-1.1159054241437559
4826,2556541.1241059938
4827,4.6981085688457827e-8
2,3, 1, 3, 0, 9, 0.00,60.00,Saturday
4973,-1.112361801215485
4826,2563396.910820381
4827,1.2022383089060896e-7
2,3, 1, 3, 0,10, 0.00,60.00,Saturday
4973,-1.108520669006801
4826,2515605.2087717379
4827,9.996483640861698e-8
2,3, 1, 3, 0,11, 0.00,60.00,Saturday
4973,-1.1054397354194992
4826,2527893.9961290538
4827,6.067466529202648e-8
2,3, 1, 3, 0,12, 0.00,60.00,Saturday
4973,-1.1030507917676534
4826,2487602.0088936176
4827,6.231175575521775e-8
2,3, 1, 3, 0,13, 0.00,60.00,Saturday
4973,-1.099948552926321
4826,2450587.2047954734
4827,9.873701856122352e-8
2,3, 1, 3, 0,14, 0.00,60.00,Saturday
4973,-1.0964845606551064
4826,2416067.778330989
4827,8.072902346611954e-8
2,3, 1, 3, 0,15, 0.00,60.00,Saturday
4973,-1.092155724273643
4826,2349293.7104137588
4827,2.3533175408374519e-8
2,3, 1, 3, 0,16, 0.00,60.00,Saturday
4973,-1.0861076818029494
4826,2331604.927287512
4827,3.877858034684323e-8
2,3, 1, 3, 0,17, 0.00,60.00,Saturday
4973,-1.081281683025971
4826,2360196.133042127
4827,3.7550762499449777e-8
2,3, 1, 3, 0,18, 0.00,60.00,Saturday
4973,-1.076912276142405
4826,2341965.0774713146
4827,3.529976311256178e-8
2,3, 1, 3, 0,19, 0.00,60.00,Saturday
4973,-1.0704510418079588
4826,2307411.408719131
4827,3.714148988365196e-8
2,3, 1, 3, 0,20, 0.00,60.00,Saturday
4973,-1.0632112798909535
4826,2164303.1528005308
4827,7.27482074580621e-8
2,3, 1, 3, 0,21, 0.00,60.00,Saturday
4973,-1.055290393650484
4826,2092119.4319393947
4827,3.437889972701669e-8
2,3, 1, 3, 0,22, 0.00,60.00,Saturday
4973,-1.0472703095060046
4826,2063659.656921817
4827,3.212790034012869e-8
2,3, 1, 3, 0,23, 0.00,60.00,Saturday
4973,-1.0409770519733753
4826,2050508.8811186078
4827,6.01630745222792e-8
2,3, 1, 3, 0,24, 0.00,60.00,Saturday
4973,-1.0350125465191729
4826,1983962.1846296099
4827,6.210711944731884e-8
2,4, 1, 4, 0, 1, 0.00,60.00,Sunday
4973,-1.0314731398032234
4826,2120330.7156571696
4827,7.275692842749777
2,4, 1, 4, 0, 2, 0.00,60.00,Sunday
4973,-1.0273352967438903
4826,2121140.7486663365
4827,4.972662281943485e-8
2,4, 1, 4, 0, 3, 0.00,60.00,Sunday
4973,-1.0242959669107148
4826,2102562.5739148047
4827,4.583853296935558e-8
2,4, 1, 4, 0, 4, 0.00,60.00,Sunday
4973,-1.021324757338394
4826,2089687.4424317338
4827,3.3662672649370509e-8
2,4, 1, 4, 0, 5, 0.00,60.00,Sunday
4973,-1.0180888817664587
4826,2081386.367768616
4827,7.817106961738318e-8
2,4, 1, 4, 0, 6, 0.00,60.00,Sunday
4973,-1.0146829032096104
4826,2077915.3030044055
4827,7.950120561872609e-8
2,4, 1, 4, 0, 7, 0.00,60.00,Sunday
4973,-1.011719298775211
4826,2073335.020086053
4827,4.768025974044576e-8
2,4, 1, 4, 0, 8, 0.00,60.00,Sunday
4973,-1.0094292680932596
4826,2063782.8094765624
4827,6.245841177587863e-8
2,4, 1, 4, 0, 9, 0.00,60.00,Sunday
4973,-1.0091897521395306
4826,2104443.9183034754
4827,9.443965609534644e-8
2,4, 1, 4, 0,10, 0.00,60.00,Sunday
4973,-1.0095474278897892
4826,2079055.461810128
4827,1.1940528565901332e-7
2,4, 1, 4, 0,11, 0.00,60.00,Sunday
4973,-1.0102926585676806
4826,2110601.7920190978
4827,7.714788807788864e-8
2,4, 1, 4, 0,12, 0.00,60.00,Sunday
4973,-1.0130686708970056
4826,2079394.7523756533
4827,7.356675268965773e-8
2,4, 1, 4, 0,13, 0.00,60.00,Sunday
4973,-1.0142054122129769
4826,2037857.2007057928
4827,5.228457666817121e-8
2,4, 1, 4, 0,14, 0.00,60.00,Sunday
4973,-1.0144549957034457
4826,1982471.5522924937
4827,3.652758095995523e-8
2,4, 1, 4, 0,15, 0.00,60.00,Sunday
4973,-1.0113290083761846
4826,1873201.5636922746
4827,5.013589543523267e-8
2,4, 1, 4, 0,16, 0.00,60.00,Sunday
4973,-1.003109470406309
4826,1816536.9113381473
4827,5.985612006043084e-8
2,4, 1, 4, 0,17, 0.00,60.00,Sunday
4973,-0.9942355235344642
4826,1844889.1162858743
4827,7.418066161335446e-8
2,4, 1, 4, 0,18, 0.00,60.00,Sunday
4973,-0.9889006570807964
4826,1850033.1738878638
4827,9.94532456388697e-8
2,4, 1, 4, 0,19, 0.00,60.00,Sunday
4973,-0.9840195424859459
4826,1856406.7466505552
4827,3.8471625884994867e-8
2,4, 1, 4, 0,20, 0.00,60.00,Sunday
4973,-0.9791583946013349
4826,1753727.2824990743
4827,9.825100732996361e-8
2,4, 1, 4, 0,21, 0.00,60.00,Sunday
4973,-0.9761117180944968
4826,1715385.780320985
4827,3.4583536034915599e-8
2,4, 1, 4, 0,22, 0.00,60.00,Sunday
4973,-0.9735241793478696
4826,1708239.448462119
4827,0.0
2,4, 1, 4, 0,23, 0.00,60.00,Sunday
4973,-0.9711745269472267
4826,1701833.0549344104
4827,4.9828940973384309e-8
2,4, 1, 4, 0,24, 0.00,60.00,Sunday
4973,-0.9690134402550341
4826,1636170.0121851317
4827,7.152038961066865e-8
2,5, 1, 5, 0, 1, 0.00,60.00,Monday
4973,-0.9693142075025654
4826,1771057.3266859116
4827,0.6413868851376492
2,5, 1, 5, 0, 2, 0.00,60.00,Monday
4973,-0.9688026855705012
4826,1768120.5200952623
4827,7.888729669502936e-8
2,5, 1, 5, 0, 3, 0.00,60.00,Monday
4973,-0.9694625513021843
4826,1785926.7393505993
4827,4.7117509893723766e-8
2,5, 1, 5, 0, 4, 0.00,60.00,Monday
4973,-0.9719729556460586
4826,1807270.9264582906
4827,1.192006493511144e-8
2,5, 1, 5, 0, 5, 0.00,60.00,Monday
4973,-0.9756384519207645
4826,1822444.2688649984
4827,8.819824870442972e-8
2,5, 1, 5, 0, 6, 0.00,60.00,Monday
4973,-0.9790032629355115
4826,1838857.771123737
4827,7.269704838108737e-8
2,5, 1, 5, 0, 7, 0.00,60.00,Monday
4973,-0.9821912947779268
4826,1855965.8783583446
4827,5.944684744463302e-8
2,5, 1, 5, 0, 8, 0.00,60.00,Monday
4973,-1.5197070675278138
4826,0.0
4827,0.0
2,5, 1, 5, 0, 9, 0.00,60.00,Monday
4973,-1.827996325606659
4826,0.0
4827,0.0
2,5, 1, 5, 0,10, 0.00,60.00,Monday
4973,-1.8528484756193529
4826,0.0
4827,0.0
2,5, 1, 5, 0,11, 0.00,60.00,Monday
4973,-1.867385227158919
4826,0.0
4827,0.0
2,5, 1, 5, 0,12, 0.00,60.00,Monday
4973,-1.8790026076377194
4826,0.0
4827,0.0
2,5, 1, 5, 0,13, 0.00,60.00,Monday
4973,-1.885551442115369
4826,0.0
4827,0.0
2,5, 1, 5, 0,14, 0.00,60.00,Monday
4973,-1.884482502569662
4826,0.0
4827,0.0
2,5, 1, 5, 0,15, 0.00,60.00,Monday
4973,-1.8809243896661237
4826,0.0
4827,0.0
2,5, 1, 5, 0,16, 0.00,60.00,Monday
4973,-1.8751230271372408
4826,0.0
4827,0.0
2,5, 1, 5, 0,17, 0.00,60.00,Monday
4973,-1.872894696336194
4826,0.0
4827,0.0
2,5, 1, 5, 0,18, 0.00,60.00,Monday
4973,-1.8718794237409926
4826,0.0
4827,0.0
2,5, 1, 5, 0,19, 0.00,60.00,Monday
4973,-1.8735175573334356
4826,0.0
4827,0.0
2,5, 1, 5, 0,20, 0.00,60.00,Monday
4973,-1.8650387555512258
4826,0.0
4827,0.0
2,5, 1, 5, 0,21, 0.00,60.00,Monday
4973,-1.8782629736308956
4826,0.0
4827,0.0
2,5, 1, 5, 0,22, 0.00,60.00,Monday
4973,-1.2955643455122477
4826,3065706.7414519509
4827,7.89179921412142e-8
2,5, 1, 5, 0,23, 0.00,60.00,Monday
4973,-1.09220114755023
4826,2178701.312112156
4827,2.9672264645341785e-8
2,5, 1, 5, 0,24, 0.00,60.00,Monday
4973,-1.079378957211449
4826,2060015.7780045702
4827,5.32054400537163e-8
2,6, 1, 6, 0, 1, 0.00,60.00,Tuesday
4973,-1.0698028121630677
4826,2241602.2173100688
4827,6.577293525958794
2,6, 1, 6, 0, 2, 0.00,60.00,Tuesday
4973,-1.062099740015415
4826,2237443.7931902834
4827,6.272102837101557e-8
2,6, 1, 6, 0, 3, 0.00,60.00,Tuesday
4973,-1.0542037597307373
4826,2192826.1120982507
4827,5.392166713136248e-8
2,6, 1, 6, 0, 4, 0.00,60.00,Tuesday
4973,-1.0468154919599547
4826,2162160.251549226
4827,3.6629899113904688e-8
2,6, 1, 6, 0, 5, 0.00,60.00,Tuesday
4973,-1.0401694064636642
4826,2149541.5815600778
4827,3.8471625884994867e-8
2,6, 1, 6, 0, 6, 0.00,60.00,Tuesday
4973,-1.0340480778350543
4826,2133751.3153770684
4827,7.898961484897882e-8
2,6, 1, 6, 0, 7, 0.00,60.00,Tuesday
4973,-1.0290075186091917
4826,2120354.283644075
4827,1.9747403712244706e-8
2,6, 1, 6, 0, 8, 0.00,60.00,Tuesday
4973,-1.5624218633820038
4826,0.0
4827,0.0
2,6, 1, 6, 0, 9, 0.00,60.00,Tuesday
4973,-1.8974702310859333
4826,0.0
4827,0.0
2,6, 1, 6, 0,10, 0.00,60.00,Tuesday
4973,-1.8745645371508433
4826,0.0
4827,0.0
2,6, 1, 6, 0,11, 0.00,60.00,Tuesday
4973,-1.8665703484984416
4826,0.0
4827,0.0
2,6, 1, 6, 0,12, 0.00,60.00,Tuesday
4973,-1.8549601811535799
4826,0.0
4827,0.0
2,6, 1, 6, 0,13, 0.00,60.00,Tuesday
4973,-1.8273086734879463
4826,0.0
4827,0.0
2,6, 1, 6, 0,14, 0.00,60.00,Tuesday
4973,-1.7824162222647327
4826,0.0
4827,0.0
2,6, 1, 6, 0,15, 0.00,60.00,Tuesday
4973,-1.735634552735667
4826,0.0
4827,0.0
2,6, 1, 6, 0,16, 0.00,60.00,Tuesday
4973,-1.6751909137352113
4826,0.0
4827,0.0
2,6, 1, 6, 0,17, 0.00,60.00,Tuesday
4973,-1.6329136885873948
4826,0.0
4827,0.0
2,6, 1, 6, 0,18, 0.00,60.00,Tuesday
4973,-1.6405194173462677
4826,0.0
4827,0.0
2,6, 1, 6, 0,19, 0.00,60.00,Tuesday
4973,-1.6701595789512012
4826,0.0
4827,0.0
2,6, 1, 6, 0,20, 0.00,60.00,Tuesday
4973,-1.6858898047248066
4826,0.0
4827,0.0
2,6, 1, 6, 0,21, 0.00,60.00,Tuesday
4973,-1.7127372699497148
4826,0.0
4827,0.0
2,6, 1, 6, 0,22, 0.00,60.00,Tuesday
4973,-1.2050223952143944
4826,2658643.3159710357
4827,3.4216895983263387e-8
2,6, 1, 6, 0,23, 0.00,60.00,Tuesday
4973,-1.0278916239120944
4826,1917190.1445227394
4827,6.650680006714538e-9
2,6, 1, 6, 0,24, 0.00,60.00,Tuesday
4973,-1.0168165377470778
4826,1814348.8075619247
4827,2.660272002685815e-8
2,7, 1, 7, 0, 1, 0.00,60.00,Wednesday
4973,-1.0119971175077554
4826,2010160.8240609319
4827,5.750280251959339e-8
2,7, 1, 7, 0, 2, 0.00,60.00,Wednesday
4973,-1.0098997825244558
4826,2028216.928362161
4827,7.325979822780937e-8
2,7, 1, 7, 0, 3, 0.00,60.00,Wednesday
4973,-1.0102518745885308
4826,2062523.3702221248
4827,5.085212251287885e-8
2,7, 1, 7, 0, 4, 0.00,60.00,Wednesday
4973,-1.0126779900807202
4826,2114549.2583179168
4827,3.9187852962641048e-8
2,7, 1, 7, 0, 5, 0.00,60.00,Wednesday
4973,-1.0174630421195912
4826,2183788.7353566356
4827,2.7318947104504333e-8
2,7, 1, 7, 0, 6, 0.00,60.00,Wednesday
4973,-1.0241181803850888
4826,2251599.5457236266
4827,3.489049049676396e-8
2,7, 1, 7, 0, 7, 0.00,60.00,Wednesday
4973,-1.0309828263905093
4826,2308252.2972514315
4827,1.0037410902441479e-7
2,7, 1, 7, 0, 8, 0.00,60.00,Wednesday
4973,-1.6927537952596137
4826,0.0
4827,0.0
2,7, 1, 7, 0, 9, 0.00,60.00,Wednesday
4973,-2.05959285480348
4826,0.0
4827,0.0
2,7, 1, 7, 0,10, 0.00,60.00,Wednesday
4973,-2.073633770235038
4826,0.0
4827,0.0
2,7, 1, 7, 0,11, 0.00,60.00,Wednesday
4973,-2.0671828573928705
4826,0.0
4827,0.0
2,7, 1, 7, 0,12, 0.00,60.00,Wednesday
4973,-2.05778157912757
4826,0.0
4827,0.0
2,7, 1, 7, 0,13, 0.00,60.00,Wednesday
4973,-2.0111931041450137
4826,0.0
4827,0.0
2,7, 1, 7, 0,14, 0.00,60.00,Wednesday
4973,-1.9371709841122938
4826,0.0
4827,0.0
2,7, 1, 7, 0,15, 0.00,60.00,Wednesday
4973,-1.834829163507761
4826,0.0
4827,0.0
2,7, 1, 7, 0,16, 0.00,60.00,Wednesday
4973,-1.7037350236251495
4826,0.0
4827,0.0
2,7, 1, 7, 0,17, 0.00,60.00,Wednesday
4973,-1.6186035385857236
4826,0.0
4827,0.0
2,7, 1, 7, 0,18, 0.00,60.00,Wednesday
4973,-1.6287762703024833
4826,0.0
4827,0.0
2,7, 1, 7, 0,19, 0.00,60.00,Wednesday
4973,-1.6546727664160739
4826,0.0
4827,0.0
2,7, 1, 7, 0,20, 0.00,60.00,Wednesday
4973,-1.6700274888260265
4826,0.0
4827,0.0
2,7, 1, 7, 0,21, 0.00,60.00,Wednesday
4973,-1.6915078415747214
4826,0.0
4827,0.0
2,7, 1, 7, 0,22, 0.00,60.00,Wednesday
4973,-1.2122835110664992
4826,2503558.2979411568
4827,1.6619878806523049e-8
2,7, 1, 7, 0,23, 0.00,60.00,Wednesday
4973,-1.0473405008776782
4826,1850040.6723504549
4827,1.908233571157325e-8
2,7, 1, 7, 0,24, 0.00,60.00,Wednesday
4973,-1.0358374518118963
4826,1753342.8967895988
4827,1.9952040020143614e-8
2,8, 1, 8, 0, 1, 0.00,60.00,Thursday
4973,-1.0299327378604744
4826,1951667.1315063614
4827,7.822612652879408e-8
2,8, 1, 8, 0, 2, 0.00,60.00,Thursday
4973,-1.0250713126410012
4826,1959546.6520778528
4827,4.2666670196922499e-8
2,8, 1, 8, 0, 3, 0.00,60.00,Thursday
4973,-1.0211831178609923
4826,1983365.3837333136
4827,5.054516805103049e-8
2,8, 1, 8, 0, 4, 0.00,60.00,Thursday
4973,-1.0183238153017134
4826,2006573.9114115728
4827,1.075363798008766e-7
2,8, 1, 8, 0, 5, 0.00,60.00,Thursday
4973,-1.0160768661482239
4826,2019650.3317232938
4827,1.250327841262333e-7
2,8, 1, 8, 0, 6, 0.00,60.00,Thursday
4973,-1.0138710912077989
4826,2032418.3544575717
4827,5.6070348364301029e-8
2,8, 1, 8, 0, 7, 0.00,60.00,Thursday
4973,-1.0127812475051473
4826,2037247.7741834482
4827,1.1357315088389442e-7
2,8, 1, 8, 0, 8, 0.00,60.00,Thursday
4973,-1.5482092848584018
4826,0.0
4827,0.0
2,8, 1, 8, 0, 9, 0.00,60.00,Thursday
4973,-1.8800212002559862
4826,0.0
4827,0.0
2,8, 1, 8, 0,10, 0.00,60.00,Thursday
4973,-1.8816189597524003
4826,0.0
4827,0.0
2,8, 1, 8, 0,11, 0.00,60.00,Thursday
4973,-1.8696689387502397
4826,0.0
4827,0.0
2,8, 1, 8, 0,12, 0.00,60.00,Thursday
4973,-1.8537168671930889
4826,0.0
4827,0.0
2,8, 1, 8, 0,13, 0.00,60.00,Thursday
4973,-1.8316789573686099
4826,0.0
4827,0.0
2,8, 1, 8, 0,14, 0.00,60.00,Thursday
4973,-1.8087811877735205
4826,0.0
4827,0.0
2,8, 1, 8, 0,15, 0.00,60.00,Thursday
4973,-1.7846186543399534
4826,0.0
4827,0.0
2,8, 1, 8, 0,16, 0.00,60.00,Thursday
4973,-1.7618111831714499
4826,0.0
4827,0.0
2,8, 1, 8, 0,17, 0.00,60.00,Thursday
4973,-1.7417949944222662
4826,0.0
4827,0.0
2,8, 1, 8, 0,18, 0.00,60.00,Thursday
4973,-1.7391832796316603
4826,0.0
4827,0.0
2,8, 1, 8, 0,19, 0.00,60.00,Thursday
4973,-1.7529829925568224
4826,0.0
4827,0.0
2,8, 1, 8, 0,20, 0.00,60.00,Thursday
4973,-1.7632992892999245
4826,0.0
4827,0.0
2,8, 1, 8, 0,21, 0.00,60.00,Thursday
4973,-1.7736423014169514
4826,0.0
4827,0.0
2,8, 1, 8, 0,22, 0.00,60.00,Thursday
4973,-1.2371545500474318
4826,2710939.5836052449
4827,7.301082405319903e-8
2,8, 1, 8, 0,23, 0.00,60.00,Thursday
4973,-1.050582977722483
4826,1919266.801321574
4827,4.604316927725449e-9
2,8, 1, 8, 0,24, 0.00,60.00,Thursday
4973,-1.0347804165383372
4826,1822281.7078965649
4827,5.924221113673411e-8
2,9, 1, 9, 0, 1, 0.00,60.00,Friday
4973,-1.027681163768596
4826,2034694.2289933102
4827,6.005539684598002e-8
2,9, 1, 9, 0, 2, 0.00,60.00,Friday
4973,-1.0245625903590717
4826,2060883.8029595963
4827,1.227817847393453e-7
2,9, 1, 9, 0, 3, 0.00,60.00,Friday
4973,-1.0225002322660664
4826,2067784.3356470697
4827,5.678657544194721e-8
2,9, 1, 9, 0, 4, 0.00,60.00,Friday
4973,-1.0199417187566354
4826,2059311.0189228424
4827,6.220943760126829e-8
2,9, 1, 9, 0, 5, 0.00,60.00,Friday
4973,-1.0167591277694932
4826,2050354.241141692
4827,7.939888746477664e-8
2,9, 1, 9, 0, 6, 0.00,60.00,Friday
4973,-1.0136953822923987
4826,2045123.6996167079
4827,1.1613110473263078e-7
2,9, 1, 9, 0, 7, 0.00,60.00,Friday
4973,-1.0116634914683136
4826,2041238.242733657
4827,5.228457666817121e-8
2,9, 1, 9, 0, 8, 0.00,60.00,Friday
4973,-1.540567787396352
4826,0.0
4827,0.0
2,9, 1, 9, 0, 9, 0.00,60.00,Friday
4973,-1.8785953893026677
4826,0.0
4827,0.0
2,9, 1, 9, 0,10, 0.00,60.00,Friday
4973,-1.8970849384825748
4826,0.0
4827,0.0
2,9, 1, 9, 0,11, 0.00,60.00,Friday
4973,-1.9038875008605448
4826,0.0
4827,0.0
2,9, 1, 9, 0,12, 0.00,60.00,Friday
4973,-1.9055314464929765
4826,0.0
4827,0.0
2,9, 1, 9, 0,13, 0.00,60.00,Friday
4973,-1.906307406493503
4826,0.0
4827,0.0
2,9, 1, 9, 0,14, 0.00,60.00,Friday
4973,-1.9014401972704647
4826,0.0
4827,0.0
2,9, 1, 9, 0,15, 0.00,60.00,Friday
4973,-1.8999500075586933
4826,0.0
4827,0.0
2,9, 1, 9, 0,16, 0.00,60.00,Friday
4973,-1.8978296407035869
4826,0.0
4827,0.0
2,9, 1, 9, 0,17, 0.00,60.00,Friday
4973,-1.901934229334825
4826,0.0
4827,0.0
2,9, 1, 9, 0,18, 0.00,60.00,Friday
4973,-1.9119583063923745
4826,0.0
4827,0.0
2,9, 1, 9, 0,19, 0.00,60.00,Friday
4973,-1.9192612497840048
4826,0.0
4827,0.0
2,9, 1, 9, 0,20, 0.00,60.00,Friday
4973,-1.909515758552981
4826,0.0
4827,0.0
2,9, 1, 9, 0,21, 0.00,60.00,Friday
4973,-1.9077072498788206
4826,0.0
4827,0.0
2,9, 1, 9, 0,22, 0.00,60.00,Friday
4973,-1.3048811192699149
4826,3099433.5919415776
4827,6.896584636706393e-8
2,9, 1, 9, 0,23, 0.00,60.00,Friday
4973,-1.099807740226405
4826,2218988.637335711
4827,6.098161975387484e-8
2,9, 1, 9, 0,24, 0.00,60.00,Friday
4973,-1.085014772550767
4826,2070309.177363281
4827,6.384652806445956e-8
2,10, 1,10, 0, 1, 0.00,60.00,Saturday
4973,-1.0763061063423667
4826,2221275.664838464
4827,5.165069134298911e-8
2,10, 1,10, 0, 2, 0.00,60.00,Saturday
4973,-1.0697353486115049
4826,2192803.0342871055
4827,4.235971573507413e-8
2,10, 1,10, 0, 3, 0.00,60.00,Saturday
4973,-1.0636185511342864
4826,2153562.103972068
4827,6.722302714479156e-8
2,10, 1,10, 0, 4, 0.00,60.00,Saturday
4973,-1.0577849025459339
4826,2124149.81690203
4827,9.72022462519817e-8
2,10, 1,10, 0, 5, 0.00,60.00,Saturday
4973,-1.0519691222101884
4826,2106022.106996717
4827,5.965148375253193e-8
2,10, 1,10, 0, 6, 0.00,60.00,Saturday
4973,-1.0466416617255892
4826,2095469.5759808208
4827,5.43309397471603e-8
2,10, 1,10, 0, 7, 0.00,60.00,Saturday
4973,-1.0422273956166184
4826,2084533.6527433925
4827,7.592007023049519e-8
2,10, 1,10, 0, 8, 0.00,60.00,Saturday
4973,-1.0387762303275055
4826,2067592.0192488854
4827,7.600192475365475e-8
2,10, 1,10, 0, 9, 0.00,60.00,Saturday
4973,-1.0354583416261956
4826,2113072.240438404
4827,6.650680006714538e-9
2,10, 1,10, 0,10, 0.00,60.00,Saturday
4973,-1.028445052339991
4826,2058603.8363989692
4827,4.092726157978177e-10
2,10, 1,10, 0,11, 0.00,60.00,Saturday
4973,-1.023048782891502
4826,2047748.4522633109
4827,5.873062036698684e-8
2,10, 1,10, 0,12, 0.00,60.00,Saturday
4973,-1.0205742218324028
4826,1980047.584044226
4827,1.5143086784519256e-8
2,10, 1,10, 0,13, 0.00,60.00,Saturday
4973,-1.0191516347225565
4826,1910936.7644982124
4827,3.980176188633777e-8
2,10, 1,10, 0,14, 0.00,60.00,Saturday
4973,-1.0160712041182574
4826,1830193.560323723
4827,6.05211880611023e-8
2,10, 1,10, 0,15, 0.00,60.00,Saturday
4973,-1.0048116459853032
4826,1658493.7879105358
4827,2.5835333872237244e-8
2,10, 1,10, 0,16, 0.00,60.00,Saturday
4973,-0.9855683368188616
4826,1544627.3652142678
4827,5.034053174313158e-8
2,10, 1,10, 0,17, 0.00,60.00,Saturday
4973,-0.9664462390110722
4826,1554615.698847213
4827,6.149321052362211e-8
2,10, 1,10, 0,18, 0.00,60.00,Saturday
4973,-0.9550251324692785
4826,1560502.5939775673
4827,3.161630957038142e-8
2,10, 1,10, 0,19, 0.00,60.00,Saturday
4973,-0.9495903392984262
4826,1581866.2917673507
4827,3.12070369545836e-9
2,10, 1,10, 0,20, 0.00,60.00,Saturday
4973,-0.946047629895571
4826,1484157.0294660126
4827,5.0673065743467308e-8
2,10, 1,10, 0,21, 0.00,60.00,Saturday
4973,-0.9432990445741718
4826,1453386.8883682499
4827,5.970264282950666e-8
2,10, 1,10, 0,22, 0.00,60.00,Saturday
4973,-0.9375532370010684
4826,1435298.2720714217
4827,5.3358917284640486e-8
2,10, 1,10, 0,23, 0.00,60.00,Saturday
4973,-0.9304286954426345
4826,1433092.6029635876
4827,6.093046067690011e-8
2,10, 1,10, 0,24, 0.00,60.00,Saturday
4973,-0.9243095449005865
4826,1412378.7303311385
4827,1.9696244635269978e-8
2,11, 1,11, 0, 1, 0.00,60.00,Sunday
4973,-0.9254736956514622
4826,1615823.8587947393
4827,5.7640038773700197e-8
2,11, 1,11, 0, 2, 0.00,60.00,Sunday
4973,-0.9311359526930407
4826,1685081.6021195222
4827,5.2233417591196488e-8
2,11, 1,11, 0, 3, 0.00,60.00,Sunday
4973,-0.938493930526419
4826,1724580.3223265822
4827,3.3304559110547419e-8
2,11, 1,11, 0, 4, 0.00,60.00,Sunday
4973,-0.9433645836514644
4826,1744100.0915253985
4827,2.8239810490049423e-8
2,11, 1,11, 0, 5, 0.00,60.00,Sunday
4973,-0.9462078489951433
4826,1767052.512644113
4827,1.3505996321327985e-8
2,11, 1,11, 0, 6, 0.00,60.00,Sunday
4973,-0.949972831875824
4826,1795505.1384725637
4827,5.99584382143803e-8
2,11, 1,11, 0, 7, 0.00,60.00,Sunday
4973,-0.9546531811718455
4826,1821210.7639614167
4827,3.3304559110547419e-8
2,11, 1,11, 0, 8, 0.00,60.00,Sunday
4973,-0.9582033219284901
4826,1816592.71257191
4827,8.439201337751001e-8
2,11, 1,11, 0, 9, 0.00,60.00,Sunday
4973,-0.959084460001371
4826,1807219.3354674907
4827,3.156515049340669e-8
2,11, 1,11, 0,10, 0.00,60.00,Sunday
4973,-0.9561507620489709
4826,1740760.153799242
4827,3.9187852962641048e-8
2,11, 1,11, 0,11, 0.00,60.00,Sunday
4973,-0.9515186567436613
4826,1751282.8890014867
4827,5.0238213589182126e-8
2,11, 1,11, 0,12, 0.00,60.00,Sunday
4973,-0.9478435197093728
4826,1721070.7028597259
4827,5.4075144362286667e-8
2,11, 1,11, 0,13, 0.00,60.00,Sunday
4973,-0.9453470541058366
4826,1696496.387963604
4827,1.0610392564558424e-7
2,11, 1,11, 0,14, 0.00,60.00,Sunday
4973,-0.943043411757534
4826,1680463.4530017479
4827,2.603997018013615e-8
2,11, 1,11, 0,15, 0.00,60.00,Sunday
4973,-0.9404618664891816
4826,1593469.0588562345
4827,3.7192648960626687e-8
2,11, 1,11, 0,16, 0.00,60.00,Sunday
4973,-0.9370762668310498
4826,1564190.8291328424
4827,3.565787665138487e-8
2,11, 1,11, 0,17, 0.00,60.00,Sunday
4973,-0.9353276270518441
4826,1603518.3062408495
4827,8.180336408258882e-8
2,11, 1,11, 0,18, 0.00,60.00,Sunday
4973,-0.9347618431937183
4826,1592325.1664477597
4827,2.956994649139233e-8
2,11, 1,11, 0,19, 0.00,60.00,Sunday
4973,-0.9323112974430309
4826,1568287.5638201903
4827,3.923901203961577e-8
2,11, 1,11, 0,20, 0.00,60.00,Sunday
4973,-0.9296191100589534
4826,1426384.0736112328
4827,2.6653879103832879e-8
2,11, 1,11, 0,21, 0.00,60.00,Sunday
4973,-0.9270079875825694
4826,1369262.0536549662
4827,2.6295765565009789e-8
2,11, 1,11, 0,22, 0.00,60.00,Sunday
4973,-0.9243511467860788
4826,1351487.366772498
4827,1.2789769243681804e-8
2,11, 1,11, 0,23, 0.00,60.00,Sunday
4973,-0.9236285500507971
4826,1339876.7801089236
4827,3.217905941710342e-8
2,11, 1,11, 0,24, 0.00,60.00,Sunday
4973,-0.9232999905091509
4826,1279827.7139487724
4827,7.673861546209082e-9
2,12, 1,12, 0, 1, 0.00,60.00,Monday
4973,-0.9247500876612308
4826,1424169.0195115586
4827,6.390801733966957e-8
2,12, 1,12, 0, 2, 0.00,60.00,Monday
4973,-0.92643383466703
4826,1437738.4741279539
4827,6.476739145000465e-8
2,12, 1,12, 0, 3, 0.00,60.00,Monday
4973,-0.9287091964859272
4826,1471019.8806026814
4827,2.808633325912524e-8
2,12, 1,12, 0, 4, 0.00,60.00,Monday
4973,-0.9305491330181583
4826,1501612.1052505668
4827,7.638050192326773e-8
2,12, 1,12, 0, 5, 0.00,60.00,Monday
4973,-0.9309268784512603
4826,1529942.2557601156
4827,7.341327545873355e-8
2,12, 1,12, 0, 6, 0.00,60.00,Monday
4973,-0.9298392087062827
4826,1556638.8174416614
4827,3.028617356903851e-8
2,12, 1,12, 0, 7, 0.00,60.00,Monday
4973,-0.9276781990970865
4826,1575593.618847545
4827,3.637410372903105e-8
2,12, 1,12, 0, 8, 0.00,60.00,Monday
4973,-1.4017597350492835
4826,0.0
4827,0.0
2,12, 1,12, 0, 9, 0.00,60.00,Monday
4973,-1.6701404746310938
4826,0.0
4827,0.0
2,12, 1,12, 0,10, 0.00,60.00,Monday
4973,-1.677573553273115
4826,0.0
4827,0.0
2,12, 1,12, 0,11, 0.00,60.00,Monday
4973,-1.6827172328228426
4826,0.0
4827,0.0
2,12, 1,12, 0,12, 0.00,60.00,Monday
4973,-1.6920897592948987
4826,0.0
4827,0.0
2,12, 1,12, 0,13, 0.00,60.00,Monday
4973,-1.6979789465107789
4826,0.0
4827,0.0
2,12, 1,12, 0,14, 0.00,60.00,Monday
4973,-1.7064431769339937
4826,0.0
4827,0.0
2,12, 1,12, 0,15, 0.00,60.00,Monday
4973,-1.707422067366877
4826,0.0
4827,0.0
2,12, 1,12, 0,16, 0.00,60.00,Monday
4973,-1.701136712788243
4826,0.0
4827,0.0
2,12, 1,12, 0,17, 0.00,60.00,Monday
4973,-1.691442733469084
4826,0.0
4827,0.0
2,12, 1,12, 0,18, 0.00,60.00,Monday
4973,-1.6825860943970215
4826,0.0
4827,0.0
2,12, 1,12, 0,19, 0.00,60.00,Monday
4973,-1.6815371348940258
4826,0.0
4827,0.0
2,12, 1,12, 0,20, 0.00,60.00,Monday
4973,-1.6749820195539985
4826,0.0
4827,0.0
2,12, 1,12, 0,21, 0.00,60.00,Monday
4973,-1.6777988026208957
4826,0.0
4827,0.0
2,12, 1,12, 0,22, 0.00,60.00,Monday
4973,-1.176638952908577
4826,2369090.745774695
4827,3.020431904587895e-8
2,12, 1,12, 0,23, 0.00,60.00,Monday
4973,-1.007403123093813
4826,1715043.7033616673
4827,3.6067149267182688e-8
2,12, 1,12, 0,24, 0.00,60.00,Monday
4973,-0.9953004405146896
4826,1593542.1357979689
4827,1.2994405551580713e-8
2,13, 1,13, 0, 1, 0.00,60.00,Tuesday
4973,-0.9879246875612046
4826,1765024.3332535374
4827,5.465359871510163
2,13, 1,13, 0, 2, 0.00,60.00,Tuesday
4973,-0.9817697981156421
4826,1751964.239524397
4827,8.001279638847336e-8
2,13, 1,13, 0, 3, 0.00,60.00,Tuesday
4973,-0.9764480712869825
4826,1742417.1108371062
4827,2.9058355721645058e-8
2,13, 1,13, 0, 4, 0.00,60.00,Tuesday
4973,-0.9717483456668612
4826,1734063.9846124978
4827,3.8113512346171777e-8
2,13, 1,13, 0, 5, 0.00,60.00,Tuesday
4973,-0.9673461628873272
4826,1731003.7947190796
4827,2.404476617812179e-9
2,13, 1,13, 0, 6, 0.00,60.00,Tuesday
4973,-0.963182120784251
4826,1732788.0013350938
4827,1.4119905245024711e-8
2,13, 1,13, 0, 7, 0.00,60.00,Tuesday
4973,-0.9602752276244708
4826,1732958.8031547536
4827,1.8468426787876525e-8