Program Version,EnergyPlus, Version 8.7.0-78a111df4a, YMD=2019.05.25 07:15
1,5,Environment Title[],Latitude[deg],Longitude[deg],Time Zone[],Elevation[m]
2,6,Day of Simulation[],Month[],Day of Month[],DST Indicator[1=yes 0=no],Hour[],StartMinute[],EndMinute[],DayType
3,3,Cumulative Day of Simulation[],Month[],Day of Month[],DST Indicator[1=yes 0=no],DayType  ! When Daily Report Variables Requested
4,2,Cumulative Days of Simulation[],Month[]  ! When Monthly Report Variables Requested
5,1,Cumulative Days of Simulation[] ! When Run Period Report Variables Requested
4826,1,BEDROOM2.2,Zone Ideal Loads Zone Total Heating Energy [J] !Hourly
4827,1,BEDROOM2.2,Zone Ideal Loads Zone Total Cooling Energy [J] !Hourly
4973,1,BEDROOM2.2,Zone Thermal Comfort Fanger Model PMV [] !Hourly
End of Data Dictionary
1,RUNPERIOD,  29.58, 106.47,   8.00, 259.10
2,1, 1, 1, 0, 1, 0.00,60.00,Thursday
4973,-1.090497765730639
4826,2454334.8420038765
4827,6.643688266194659e-8
2,1, 1, 1, 0, 2, 0.00,60.00,Thursday
4973,-1.0826552527011276
4826,2461451.739051445
4827,5.181756404721227
2,1, 1, 1, 0, 3, 0.00,60.00,Thursday
4973,-1.074379971544379
4826,2394302.47991011
4827,2.4351720639970155e-8
2,1, 1, 1, 0, 4, 0.00,60.00,Thursday
4973,-1.0674019973064848
4826,2358916.744664598
4827,9.147242963081226e-8
2,1, 1, 1, 0, 5, 0.00,60.00,Thursday
4973,-1.0636369930443193
4826,2373496.1884246619
4827,9.126779332291335e-8
2,1, 1, 1, 0, 6, 0.00,60.00,Thursday
4973,-1.0629638114695446
4826,2393341.0421244159
4827,6.978098099352792e-8
2,1, 1, 1, 0, 7, 0.00,60.00,Thursday
4973,-1.0643649835482166
4826,2408164.0344510006
4827,7.827338777133264e-8
2,1, 1, 1, 0, 8, 0.00,60.00,Thursday
4973,-1.6883927018833665
4826,0.0
4827,0.0
2,1, 1, 1, 0, 9, 0.00,60.00,Thursday
4973,-2.081012051550346
4826,0.0
4827,0.0
2,1, 1, 1, 0,10, 0.00,60.00,Thursday
4973,-2.119024382102698
4826,0.0
4827,0.0
2,1, 1, 1, 0,11, 0.00,60.00,Thursday
4973,-2.1262699626612679
4826,0.0
4827,0.0
2,1, 1, 1, 0,12, 0.00,60.00,Thursday
4973,-2.1227938146314666
4826,0.0
4827,0.0
2,1, 1, 1, 0,13, 0.00,60.00,Thursday
4973,-2.106717127823147
4826,0.0
4827,0.0
2,1, 1, 1, 0,14, 0.00,60.00,Thursday
4973,-2.072791924803021
4826,0.0
4827,0.0
2,1, 1, 1, 0,15, 0.00,60.00,Thursday
4973,-2.0289547955812154
4826,0.0
4827,0.0
2,1, 1, 1, 0,16, 0.00,60.00,Thursday
4973,-1.971639115570016
4826,0.0
4827,0.0
2,1, 1, 1, 0,17, 0.00,60.00,Thursday
4973,-1.9049627280176456
4826,0.0
4827,0.0
2,1, 1, 1, 0,18, 0.00,60.00,Thursday
4973,-1.846005118722085
4826,0.0
4827,0.0
2,1, 1, 1, 0,19, 0.00,60.00,Thursday
4973,-1.7984171573154038
4826,0.0
4827,0.0
2,1, 1, 1, 0,20, 0.00,60.00,Thursday
4973,-1.7706530722076995
4826,0.0
4827,0.0
2,1, 1, 1, 0,21, 0.00,60.00,Thursday
4973,-1.810872966984201
4826,0.0
4827,0.0
2,1, 1, 1, 0,22, 0.00,60.00,Thursday
4973,-1.2870455388803047
4826,3087611.1263689484
4827,6.314053280220833e-8
2,1, 1, 1, 0,23, 0.00,60.00,Thursday
4973,-1.1018899657820685
4826,2350451.4138096489
4827,5.821902959723957e-8
2,1, 1, 1, 0,24, 0.00,60.00,Thursday
4973,-1.0969204758575764
4826,2243825.3302440748
4827,4.3587533582467589e-8
2,2, 1, 2, 0, 1, 0.00,60.00,Friday
4973,-1.093840688632986
4826,2431656.386071091
4827,8.291692665807204e-8
2,2, 1, 2, 0, 2, 0.00,60.00,Friday
4973,-1.0919392293930177
4826,2426077.483959956
4827,6.57905729894992e-8
2,2, 1, 2, 0, 3, 0.00,60.00,Friday
4973,-1.0902940076109565
4826,2426046.8539958
4827,1.0682015272323042e-7
2,2, 1, 2, 0, 4, 0.00,60.00,Friday
4973,-1.0864454155534143
4826,2418354.4319891228
4827,3.079776433878578e-8
2,2, 1, 2, 0, 5, 0.00,60.00,Friday
4973,-1.0818951330962106
4826,2403524.4382662095
4827,1.0323901733499952e-7
2,2, 1, 2, 0, 6, 0.00,60.00,Friday
4973,-1.077338472878887
4826,2392281.057055569
4827,7.796643330948427e-8
2,2, 1, 2, 0, 7, 0.00,60.00,Friday
4973,-1.072938638332231
4826,2377141.5311614025
4827,8.185452315956354e-8
2,2, 1, 2, 0, 8, 0.00,60.00,Friday
4973,-1.6583973682711444
4826,0.0
4827,0.0
2,2, 1, 2, 0, 9, 0.00,60.00,Friday
4973,-2.0047079734501596
4826,0.0
4827,0.0
2,2, 1, 2, 0,10, 0.00,60.00,Friday
4973,-1.985729777047573
4826,0.0
4827,0.0
2,2, 1, 2, 0,11, 0.00,60.00,Friday
4973,-1.969059699813282
4826,0.0
4827,0.0
2,2, 1, 2, 0,12, 0.00,60.00,Friday
4973,-1.9573658140705557
4826,0.0
4827,0.0
2,2, 1, 2, 0,13, 0.00,60.00,Friday
4973,-1.9443826852508628
4826,0.0
4827,0.0
2,2, 1, 2, 0,14, 0.00,60.00,Friday
4973,-1.930620113663836
4826,0.0
4827,0.0
2,2, 1, 2, 0,15, 0.00,60.00,Friday
4973,-1.9056854697418367
4826,0.0
4827,0.0
2,2, 1, 2, 0,16, 0.00,60.00,Friday
4973,-1.8723328230954697
4826,0.0
4827,0.0
2,2, 1, 2, 0,17, 0.00,60.00,Friday
4973,-1.8516591695750855
4826,0.0
4827,0.0
2,2, 1, 2, 0,18, 0.00,60.00,Friday
4973,-1.8735600942484046
4826,0.0
4827,0.0
2,2, 1, 2, 0,19, 0.00,60.00,Friday
4973,-1.9152503607661827
4826,0.0
4827,0.0
2,2, 1, 2, 0,20, 0.00,60.00,Friday
4973,-1.9417446912677979
4826,0.0
4827,0.0
2,2, 1, 2, 0,21, 0.00,60.00,Friday
4973,-1.9679247536416727
4826,0.0
4827,0.0
2,2, 1, 2, 0,22, 0.00,60.00,Friday
4973,-1.3354829513338694
4826,3382993.461057036
4827,4.1728753785719167e-8
2,2, 1, 2, 0,23, 0.00,60.00,Friday
4973,-1.1104064171871185
4826,2384476.6594053555
4827,6.906475391588174e-8
2,2, 1, 2, 0,24, 0.00,60.00,Friday
4973,-1.0923724887607465
4826,2263336.6981077354
4827,3.622062649810687e-8
2,3, 1, 3, 0, 1, 0.00,60.00,Saturday
4973,-1.0844419942999349
4826,2463185.9126510617
4827,8.99632368600578e-8
2,3, 1, 3, 0, 2, 0.00,60.00,Saturday
4973,-1.0813594198493238
4826,2492542.4725199618
4827,7.131575330276974e-8
2,3, 1, 3, 0, 3, 0.00,60.00,Saturday
4973,-1.082903686935282
4826,2501013.673812524
4827,6.845084499218501e-8
2,3, 1, 3, 0, 4, 0.00,60.00,Saturday
4973,-1.0841364537195999
4826,2494818.7115472385
4827,6.12885742157232e-8
2,3, 1, 3, 0, 5, 0.00,60.00,Saturday
4973,-1.0838591478371889
4826,2479104.243515709
4827,2.2100721253082157e-8
2,3, 1, 3, 0, 6, 0.00,60.00,Saturday
4973,-1.0819886255063969
4826,2448472.0404975966
4827,6.190248313941993e-8
2,3, 1, 3, 0, 7, 0.00,60.00,Saturday
4973,-1.0782921383804372
4826,2399710.4018420858
4827,7.479457053705119e-8
2,3, 1, 3, 0, 8, 0.00,60.00,Saturday
4973,-1.07268309053797
4826,2346613.2841857199
4827,3.600575837481301e-8
2,3, 1, 3, 0, 9, 0.00,60.00,Saturday
4973,-1.067851991243572
4826,2346121.05019317
4827,4.338289727456868e-8
2,3, 1, 3, 0,10, 0.00,60.00,Saturday
4973,-1.0628499436233488
4826,2291913.5576688877
4827,5.750280251959339e-8
2,3, 1, 3, 0,11, 0.00,60.00,Saturday
4973,-1.0586871985479074
4826,2298211.2918622049
4827,9.658833732828498e-8
2,3, 1, 3, 0,12, 0.00,60.00,Saturday
4973,-1.0552870539980306
4826,2252195.115427155
4827,6.261871021706611e-8
2,3, 1, 3, 0,13, 0.00,60.00,Saturday
4973,-1.0513887266463578
4826,2210969.715091656
4827,3.5504399420460689e-8
2,3, 1, 3, 0,14, 0.00,60.00,Saturday
4973,-1.0472956130537772
4826,2173294.24660757
4827,6.548361852765083e-8
2,3, 1, 3, 0,15, 0.00,60.00,Saturday
4973,-1.0424766774669286
4826,2104259.504040267
4827,5.9037574828835207e-8
2,3, 1, 3, 0,16, 0.00,60.00,Saturday
4973,-1.0361569094656407
4826,2085782.289990782
4827,5.8116711443290117e-8
2,3, 1, 3, 0,17, 0.00,60.00,Saturday
4973,-1.0312140482824269
4826,2114332.9175872865
4827,4.420144250616431e-8
2,3, 1, 3, 0,18, 0.00,60.00,Saturday
4973,-1.0267644837322765
4826,2096066.8631842104
4827,4.348521542851813e-8
2,3, 1, 3, 0,19, 0.00,60.00,Saturday
4973,-1.0203218404930093
4826,2062367.685996297
4827,1.0129497240995988e-7
2,3, 1, 3, 0,20, 0.00,60.00,Saturday
4973,-1.013153347980274
4826,1920463.9850245233
4827,5.115907697472721e-9
2,3, 1, 3, 0,21, 0.00,60.00,Saturday
4973,-1.005313067677183
4826,1849602.4366580379
4827,2.169144863728434e-8
2,3, 1, 3, 0,22, 0.00,60.00,Saturday
4973,-0.9973491759096967
4826,1822388.7843309059
4827,2.077058525173925e-8
2,3, 1, 3, 0,23, 0.00,60.00,Saturday
4973,-0.9910289966792634
4826,1809620.2573906829
4827,5.540528036362957e-8
2,3, 1, 3, 0,24, 0.00,60.00,Saturday
4973,-0.9849975645863955
4826,1742986.0395362406
4827,9.351879270980135e-8
2,4, 1, 4, 0, 1, 0.00,60.00,Sunday
4973,-0.9813825288208141
4826,1879038.8115161728
4827,6.428517506568596
2,4, 1, 4, 0, 2, 0.00,60.00,Sunday
4973,-0.977111527553339
4826,1879238.2065293729
4827,7.213429853436537e-8
2,4, 1, 4, 0, 3, 0.00,60.00,Sunday
4973,-0.9739199375233176
4826,1859865.6777397143
4827,7.61247065383941e-8
2,4, 1, 4, 0, 4, 0.00,60.00,Sunday
4973,-0.9707637539611262
4826,1846139.1040214827
4827,1.1439169611549005e-7
2,4, 1, 4, 0, 5, 0.00,60.00,Sunday
4973,-0.9673055679018661
4826,1836851.229159461
4827,9.653717825131025e-8
2,4, 1, 4, 0, 6, 0.00,60.00,Sunday
4973,-0.9635837346092167
4826,1831824.763275273
4827,9.950440471584443e-8
2,4, 1, 4, 0, 7, 0.00,60.00,Sunday
4973,-0.9603166491576857
4826,1825711.817082122
4827,6.133973329269793e-8
2,4, 1, 4, 0, 8, 0.00,60.00,Sunday
4973,-0.9577529791014072
4826,1814817.7684690357
4827,7.343373908952344e-8
2,4, 1, 4, 0, 9, 0.00,60.00,Sunday
4973,-0.9572286048975365
4826,1853910.1414236169
4827,6.886011760798283e-8
2,4, 1, 4, 0,10, 0.00,60.00,Sunday
4973,-0.9573119175839525
4826,1826966.4105740605
4827,8.042206900427118e-8
2,4, 1, 4, 0,11, 0.00,60.00,Sunday
4973,-0.9578107235144637
4826,1857270.3987650998
4827,1.759872247930616e-8
2,4, 1, 4, 0,12, 0.00,60.00,Sunday
4973,-0.9604289244422763
4826,1825072.0155909053
4827,4.594085112330504e-8
2,4, 1, 4, 0,13, 0.00,60.00,Sunday
4973,-0.9616475229943242
4826,1784404.1338347805
4827,8.446363608527463e-8
2,4, 1, 4, 0,14, 0.00,60.00,Sunday
4973,-0.9621024441582826
4826,1730617.5038473323
4827,1.539888216939289e-8
2,4, 1, 4, 0,15, 0.00,60.00,Sunday
4973,-0.9593961334527952
4826,1624518.332049978
4827,5.4791371439932848e-8
2,4, 1, 4, 0,16, 0.00,60.00,Sunday
4973,-0.9517492954479538
4826,1572143.634364073
4827,4.246203388902359e-8
2,4, 1, 4, 0,17, 0.00,60.00,Sunday
4973,-0.9437539175453868
4826,1606246.1200161479
4827,4.348521542851813e-8
2,4, 1, 4, 0,18, 0.00,60.00,Sunday
4973,-0.9394464932707187
4826,1617302.172672534
4827,1.5347723092418165e-8
2,4, 1, 4, 0,19, 0.00,60.00,Sunday
4973,-0.935588613287547
4826,1629416.1132049147
4827,7.146923053369392e-8
2,4, 1, 4, 0,20, 0.00,60.00,Sunday
4973,-0.9317091514639124
4826,1532438.7197113913
4827,7.852918315620628e-9
2,4, 1, 4, 0,21, 0.00,60.00,Sunday
4973,-0.9294973491747252
4826,1498923.0407111934
4827,5.893525667488575e-8
2,4, 1, 4, 0,22, 0.00,60.00,Sunday
4973,-0.927442548429044
4826,1494971.6646045454
4827,6.190248313941993e-9
2,4, 1, 4, 0,23, 0.00,60.00,Sunday
4973,-0.9253687999894904
4826,1490548.977374718
4827,6.062350621505175e-8
2,4, 1, 4, 0,24, 0.00,60.00,Sunday
4973,-0.9231183868486552
4826,1424744.472518705
4827,1.304556462855544e-8
2,5, 1, 5, 0, 1, 0.00,60.00,Monday
4973,-0.9230904937456557
4826,1557803.975366556
4827,0.5754660447024662
2,5, 1, 5, 0, 2, 0.00,60.00,Monday
4973,-0.9222096622125392
4826,1552940.8939731657
4827,5.627498467219993e-10
2,5, 1, 5, 0, 3, 0.00,60.00,Monday
4973,-0.9223758053977341
4826,1568049.0100845649
4827,7.709672900091391e-8
2,5, 1, 5, 0, 4, 0.00,60.00,Monday
4973,-0.9243105617742251
4826,1585998.3749815147
4827,4.537810127658304e-8
2,5, 1, 5, 0, 5, 0.00,60.00,Monday
4973,-0.9274175030566747
4826,1597975.0677507036
4827,6.415348252630793e-8
2,5, 1, 5, 0, 6, 0.00,60.00,Monday
4973,-0.930194450073363
4826,1611222.5105807237
4827,2.7421265258453788e-8
2,5, 1, 5, 0, 7, 0.00,60.00,Monday
4973,-0.9327816222003463
4826,1625151.164032528
4827,3.043965079996269e-8
2,5, 1, 5, 0, 8, 0.00,60.00,Monday
4973,-1.4434578280092248
4826,0.0
4827,0.0
2,5, 1, 5, 0, 9, 0.00,60.00,Monday
4973,-1.7254055510730473
4826,0.0
4827,0.0
2,5, 1, 5, 0,10, 0.00,60.00,Monday
4973,-1.747232764470429
4826,0.0
4827,0.0
2,5, 1, 5, 0,11, 0.00,60.00,Monday
4973,-1.759342019229536
4826,0.0
4827,0.0
2,5, 1, 5, 0,12, 0.00,60.00,Monday
4973,-1.768787911219746
4826,0.0
4827,0.0
2,5, 1, 5, 0,13, 0.00,60.00,Monday
4973,-1.773574879533533
4826,0.0
4827,0.0
2,5, 1, 5, 0,14, 0.00,60.00,Monday
4973,-1.771310247690712
4826,0.0
4827,0.0
2,5, 1, 5, 0,15, 0.00,60.00,Monday
4973,-1.7668924404264335
4826,0.0
4827,0.0
2,5, 1, 5, 0,16, 0.00,60.00,Monday
4973,-1.7603909576201125
4826,0.0
4827,0.0
2,5, 1, 5, 0,17, 0.00,60.00,Monday
4973,-1.7582117792863652
4826,0.0
4827,0.0
2,5, 1, 5, 0,18, 0.00,60.00,Monday
4973,-1.7576422383807069
4826,0.0
4827,0.0
2,5, 1, 5, 0,19, 0.00,60.00,Monday
4973,-1.7597232410600026
4826,0.0
4827,0.0
2,5, 1, 5, 0,20, 0.00,60.00,Monday
4973,-1.7527186307538537
4826,0.0
4827,0.0
2,5, 1, 5, 0,21, 0.00,60.00,Monday
4973,-1.7672374246783962
4826,0.0
4827,0.0
2,5, 1, 5, 0,22, 0.00,60.00,Monday
4973,-1.2268175513818554
4826,2756251.263693248
4827,2.2844233171781526e-8
2,5, 1, 5, 0,23, 0.00,60.00,Monday
4973,-1.037571592360017
4826,1912997.5810970844
4827,1.524540493846871e-8
2,5, 1, 5, 0,24, 0.00,60.00,Monday
4973,-1.0254929421599726
4826,1801031.2200408916
4827,5.801439328934066e-8
2,6, 1, 6, 0, 1, 0.00,60.00,Tuesday
4973,-1.0163258872241859
4826,1986290.6762307957
4827,5.805387835626603
2,6, 1, 6, 0, 2, 0.00,60.00,Tuesday
4973,-1.0088842353234565
4826,1984331.5734486413
4827,2.42494024860207e-8
2,6, 1, 6, 0, 3, 0.00,60.00,Tuesday
4973,-1.0009894638035686
4826,1940397.144942163
4827,8.748202162678354e-8
2,6, 1, 6, 0, 4, 0.00,60.00,Tuesday
4973,-0.9934393715917809
4826,1909237.8760853064
4827,3.4992808650713417e-8
2,6, 1, 6, 0, 5, 0.00,60.00,Tuesday
4973,-0.9865135783111941
4826,1895264.5298211508
4827,1.5859313862165437e-8
2,6, 1, 6, 0, 6, 0.00,60.00,Tuesday
4973,-0.9801473167230085
4826,1878289.4296535706
4827,2.0156676328042523e-8
2,6, 1, 6, 0, 7, 0.00,60.00,Tuesday
4973,-0.9748138086789826
4826,1863210.518511302
4827,5.0954440666828307e-8
2,6, 1, 6, 0, 8, 0.00,60.00,Tuesday
4973,-1.4798203574782474
4826,0.0
4827,0.0
2,6, 1, 6, 0, 9, 0.00,60.00,Tuesday
4973,-1.7875986879416537
4826,0.0
4827,0.0
2,6, 1, 6, 0,10, 0.00,60.00,Tuesday
4973,-1.785168697949548
4826,0.0
4827,0.0
2,6, 1, 6, 0,11, 0.00,60.00,Tuesday
4973,-1.7716979070750203
4826,0.0
4827,0.0
2,6, 1, 6, 0,12, 0.00,60.00,Tuesday
4973,-1.7547089424062264
4826,0.0
4827,0.0
2,6, 1, 6, 0,13, 0.00,60.00,Tuesday
4973,-1.7295763313612199
4826,0.0
4827,0.0
2,6, 1, 6, 0,14, 0.00,60.00,Tuesday
4973,-1.6909990824804584
4826,0.0
4827,0.0
2,6, 1, 6, 0,15, 0.00,60.00,Tuesday
4973,-1.6494700860453875
4826,0.0
4827,0.0
2,6, 1, 6, 0,16, 0.00,60.00,Tuesday
4973,-1.5953094687731567
4826,0.0
4827,0.0
2,6, 1, 6, 0,17, 0.00,60.00,Tuesday
4973,-1.55849380421721
4826,0.0
4827,0.0
2,6, 1, 6, 0,18, 0.00,60.00,Tuesday
4973,-1.5687662794175064
4826,0.0
4827,0.0
2,6, 1, 6, 0,19, 0.00,60.00,Tuesday
4973,-1.6029512399837019
4826,0.0
4827,0.0
2,6, 1, 6, 0,20, 0.00,60.00,Tuesday
4973,-1.6244474999695323
4826,0.0
4827,0.0
2,6, 1, 6, 0,21, 0.00,60.00,Tuesday
4973,-1.6555401095496374
4826,0.0
4827,0.0
2,6, 1, 6, 0,22, 0.00,60.00,Tuesday
4973,-1.1717743909985435
4826,2525620.7356113058
4827,6.675747954432154e-8
2,6, 1, 6, 0,23, 0.00,60.00,Tuesday
4973,-1.0023544814989305
4826,1814907.265038662
4827,1.0022063179349061e-7
2,6, 1, 6, 0,24, 0.00,60.00,Tuesday
4973,-0.9916296194584172
4826,1714105.2483656295
4827,1.652438186283689e-8
2,7, 1, 7, 0, 1, 0.00,60.00,Wednesday
4973,-0.9865877044894381
4826,1908308.8143166297
4827,6.95899871061556e-8
2,7, 1, 7, 0, 2, 0.00,60.00,Wednesday
4973,-0.9835092102452328
4826,1922453.820606571
4827,8.369624993065372e-8
2,7, 1, 7, 0, 3, 0.00,60.00,Wednesday
4973,-0.9831376248703161
4826,1951041.4337447184
4827,3.2741809263825418e-9
2,7, 1, 7, 0, 4, 0.00,60.00,Wednesday
4973,-0.9845557598290213
4826,1996269.653055923
4827,7.49992068449501e-8
2,7, 1, 7, 0, 5, 0.00,60.00,Wednesday
4973,-0.9880082449112447
4826,2057081.435449022
4827,1.133685145759955e-7
2,7, 1, 7, 0, 6, 0.00,60.00,Wednesday
4973,-0.9931450674302406
4826,2115322.0707244805
4827,4.1745806811377409e-8
2,7, 1, 7, 0, 7, 0.00,60.00,Wednesday
4973,-0.9984450220194314
4826,2162669.9496320255
4827,7.571543392259628e-9
2,7, 1, 7, 0, 8, 0.00,60.00,Wednesday
4973,-1.6398462010048507
4826,0.0
4827,0.0
2,7, 1, 7, 0, 9, 0.00,60.00,Wednesday
4973,-1.9864611967352528
4826,0.0
4827,0.0
2,7, 1, 7, 0,10, 0.00,60.00,Wednesday
4973,-2.0129518492974909
4826,0.0
4827,0.0
2,7, 1, 7, 0,11, 0.00,60.00,Wednesday
4973,-2.016348231648329
4826,0.0
4827,0.0
2,7, 1, 7, 0,12, 0.00,60.00,Wednesday
4973,-1.9971011324267308
4826,0.0
4827,0.0
2,7, 1, 7, 0,13, 0.00,60.00,Wednesday
4973,-1.9503346616627462
4826,0.0
4827,0.0
2,7, 1, 7, 0,14, 0.00,60.00,Wednesday
4973,-1.8747453238239543
4826,0.0
4827,0.0
2,7, 1, 7, 0,15, 0.00,60.00,Wednesday
4973,-1.7760795580962384
4826,0.0
4827,0.0
2,7, 1, 7, 0,16, 0.00,60.00,Wednesday
4973,-1.655982222293148
4826,0.0
4827,0.0
2,7, 1, 7, 0,17, 0.00,60.00,Wednesday
4973,-1.571954573932637
4826,0.0
4827,0.0
2,7, 1, 7, 0,18, 0.00,60.00,Wednesday
4973,-1.5837975289111042
4826,0.0
4827,0.0
2,7, 1, 7, 0,19, 0.00,60.00,Wednesday
4973,-1.615534235471852
4826,0.0
4827,0.0
2,7, 1, 7, 0,20, 0.00,60.00,Wednesday
4973,-1.6370956921534746
4826,0.0
4827,0.0
2,7, 1, 7, 0,21, 0.00,60.00,Wednesday
4973,-1.6613109606193733
4826,0.0
4827,0.0
2,7, 1, 7, 0,22, 0.00,60.00,Wednesday
4973,-1.1958649052691044
4826,2523876.0500741668
4827,3.945388016290963e-8
2,7, 1, 7, 0,23, 0.00,60.00,Wednesday
4973,-1.034857803799127
4826,1812125.9560806314
4827,3.7346126191550869e-8
2,7, 1, 7, 0,24, 0.00,60.00,Wednesday
4973,-1.0233773619966276
4826,1715227.9706135707
4827,3.3151081879623237e-8
2,8, 1, 8, 0, 1, 0.00,60.00,Thursday
4973,-1.0170447371003054
4826,1910691.3707527619
4827,4.521585391817748e-8
2,8, 1, 8, 0, 2, 0.00,60.00,Thursday
4973,-1.0114698331584738
4826,1914104.1455988114
4827,1.2943246474605986e-7
2,8, 1, 8, 0, 3, 0.00,60.00,Thursday
4973,-1.0066114453036342
4826,1932099.685374523
4827,7.806875146343373e-8
2,8, 1, 8, 0, 4, 0.00,60.00,Thursday
4973,-1.0025152357167003
4826,1947936.2127831213
4827,6.047002898412757e-8
2,8, 1, 8, 0, 5, 0.00,60.00,Thursday
4973,-0.9988895401769448
4826,1952976.1168429154
4827,7.131575330276974e-8
2,8, 1, 8, 0, 6, 0.00,60.00,Thursday
4973,-0.9952215960505741
4826,1957274.984161708
4827,3.714148988365196e-8
2,8, 1, 8, 0, 7, 0.00,60.00,Thursday
4973,-0.9925026048489749
4826,1952470.5980707769
4827,3.3867308957269418e-8
2,8, 1, 8, 0, 8, 0.00,60.00,Thursday
4973,-1.514597017760663
4826,0.0
4827,0.0
2,8, 1, 8, 0, 9, 0.00,60.00,Thursday
4973,-1.8305226186428275
4826,0.0
4827,0.0
2,8, 1, 8, 0,10, 0.00,60.00,Thursday
4973,-1.8288443101943218
4826,0.0
4827,0.0
2,8, 1, 8, 0,11, 0.00,60.00,Thursday
4973,-1.8199325069741268
4826,0.0
4827,0.0
2,8, 1, 8, 0,12, 0.00,60.00,Thursday
4973,-1.7999046005397009
4826,0.0
4827,0.0
2,8, 1, 8, 0,13, 0.00,60.00,Thursday
4973,-1.7769754408438013
4826,0.0
4827,0.0
2,8, 1, 8, 0,14, 0.00,60.00,Thursday
4973,-1.7527716927678064
4826,0.0
4827,0.0
2,8, 1, 8, 0,15, 0.00,60.00,Thursday
4973,-1.729654430892937
4826,0.0
4827,0.0
2,8, 1, 8, 0,16, 0.00,60.00,Thursday
4973,-1.710031753018637
4826,0.0
4827,0.0
2,8, 1, 8, 0,17, 0.00,60.00,Thursday
4973,-1.6927281370701302
4826,0.0
4827,0.0
2,8, 1, 8, 0,18, 0.00,60.00,Thursday
4973,-1.692881085157756
4826,0.0
4827,0.0
2,8, 1, 8, 0,19, 0.00,60.00,Thursday
4973,-1.7099630782525353
4826,0.0
4827,0.0
2,8, 1, 8, 0,20, 0.00,60.00,Thursday
4973,-1.7234750552834744
4826,0.0
4827,0.0
2,8, 1, 8, 0,21, 0.00,60.00,Thursday
4973,-1.7360108548143396
4826,0.0
4827,0.0
2,8, 1, 8, 0,22, 0.00,60.00,Thursday
4973,-1.215137931416184
4826,2626225.4545839827
4827,3.382147895081289e-8
2,8, 1, 8, 0,23, 0.00,60.00,Thursday
4973,-1.0332000075755559
4826,1851483.7079217439
4827,6.118625606177375e-8
2,8, 1, 8, 0,24, 0.00,60.00,Thursday
4973,-1.0170505368382795
4826,1752747.6171551976
4827,8.819824870442972e-8
2,9, 1, 9, 0, 1, 0.00,60.00,Friday
4973,-1.0092916069989742
4826,1961316.7231292306
4827,6.688537723675836e-8
2,9, 1, 9, 0, 2, 0.00,60.00,Friday
4973,-1.0054857792063544
4826,1982583.5533128123
4827,3.581135388230905e-9
2,9, 1, 9, 0, 3, 0.00,60.00,Friday
4973,-1.0024275766068476
4826,1983769.4167773047
4827,7.61247065383941e-8
2,9, 1, 9, 0, 4, 0.00,60.00,Friday
4973,-0.9986469589963594
4826,1968697.3377707806
4827,1.0855956134037115e-7
2,9, 1, 9, 0, 5, 0.00,60.00,Friday
4973,-0.994137612428716
4826,1952562.9567426455
4827,5.688889359589666e-8
2,9, 1, 9, 0, 6, 0.00,60.00,Friday
4973,-0.9896256944357921
4826,1939251.4935434105
4827,5.842366590513848e-8
2,9, 1, 9, 0, 7, 0.00,60.00,Friday
4973,-0.9861454998107974
4826,1927176.2804922455
4827,9.72022462519817e-8
2,9, 1, 9, 0, 8, 0.00,60.00,Friday
4973,-1.4991803408152865
4826,0.0
4827,0.0
2,9, 1, 9, 0, 9, 0.00,60.00,Friday
4973,-1.819190705057991
4826,0.0
4827,0.0
2,9, 1, 9, 0,10, 0.00,60.00,Friday
4973,-1.834371590850762
4826,0.0
4827,0.0
2,9, 1, 9, 0,11, 0.00,60.00,Friday
4973,-1.8379053568373765
4826,0.0
4827,0.0
2,9, 1, 9, 0,12, 0.00,60.00,Friday
4973,-1.836536218717002
4826,0.0
4827,0.0
2,9, 1, 9, 0,13, 0.00,60.00,Friday
4973,-1.8345834593241953
4826,0.0
4827,0.0
2,9, 1, 9, 0,14, 0.00,60.00,Friday
4973,-1.8275740078923167
4826,0.0
4827,0.0
2,9, 1, 9, 0,15, 0.00,60.00,Friday
4973,-1.8244581872634048
4826,0.0
4827,0.0
2,9, 1, 9, 0,16, 0.00,60.00,Friday
4973,-1.821160410165238
4826,0.0
4827,0.0
2,9, 1, 9, 0,17, 0.00,60.00,Friday
4973,-1.8243434676612307
4826,0.0
4827,0.0
2,9, 1, 9, 0,18, 0.00,60.00,Friday
4973,-1.8335662651008238
4826,0.0
4827,0.0
2,9, 1, 9, 0,19, 0.00,60.00,Friday
4973,-1.8402713310730925
4826,0.0
4827,0.0
2,9, 1, 9, 0,20, 0.00,60.00,Friday
4973,-1.8309122234438829
4826,0.0
4827,0.0
2,9, 1, 9, 0,21, 0.00,60.00,Friday
4973,-1.8293658834309146
4826,0.0
4827,0.0
2,9, 1, 9, 0,22, 0.00,60.00,Friday
4973,-1.2561418805411922
4826,2908978.7213545499
4827,6.86895873514004e-8
2,9, 1, 9, 0,23, 0.00,60.00,Friday
4973,-1.0606162491401894
4826,2027700.1235393529
4827,6.71207089908421e-8
2,9, 1, 9, 0,24, 0.00,60.00,Friday
4973,-1.046146787486518
4826,1882936.708894326
4827,6.200480129336938e-8
2,10, 1,10, 0, 1, 0.00,60.00,Saturday
4973,-1.037543284639633
4826,2035635.1545225485
4827,4.3631871449179019e-8
2,10, 1,10, 0, 2, 0.00,60.00,Saturday
4973,-1.0309930647916903
4826,2007916.205680844
4827,0.0
2,10, 1,10, 0, 3, 0.00,60.00,Saturday
4973,-1.0248584738830402
4826,1969110.8064804185
4827,1.0027179087046534e-7
2,10, 1,10, 0, 4, 0.00,60.00,Saturday
4973,-1.01892100978431
4826,1939639.5478622877
4827,5.6274984672199938e-8
2,10, 1,10, 0, 5, 0.00,60.00,Saturday
4973,-1.0129695066032825
4826,1921158.6256833126
4827,3.34580363414716e-8
2,10, 1,10, 0, 6, 0.00,60.00,Saturday
4973,-1.0074777584465576
4826,1910048.6949416022
4827,5.402398528531194e-8
2,10, 1,10, 0, 7, 0.00,60.00,Saturday
4973,-1.0029155299858315
4826,1898531.9510351509
4827,6.916707206983119e-8
2,10, 1,10, 0, 8, 0.00,60.00,Saturday
4973,-0.9992961478891045
4826,1880887.6846816946
4827,3.189938979630824e-8
2,10, 1,10, 0, 9, 0.00,60.00,Saturday
4973,-0.9965928150760715
4826,1929990.0976139873
4827,5.197762220632285e-8
2,10, 1,10, 0,10, 0.00,60.00,Saturday
4973,-0.9945063536714439
4826,1904738.8950726926
4827,6.660911822109483e-8
2,10, 1,10, 0,11, 0.00,60.00,Saturday
4973,-0.9929967377121108
4826,1915868.5116463486
4827,5.013589543523267e-9
2,10, 1,10, 0,12, 0.00,60.00,Saturday
4973,-0.9923700106833796
4826,1857375.5207513183
4827,8.0268591773347e-8
2,10, 1,10, 0,13, 0.00,60.00,Saturday
4973,-0.9904587507891328
4826,1784109.5263052576
4827,1.8110313249053435e-8
2,10, 1,10, 0,14, 0.00,60.00,Saturday
4973,-0.9874113361466416
4826,1702784.9793722849
4827,3.1667468647356148e-8
2,10, 1,10, 0,15, 0.00,60.00,Saturday
4973,-0.9786529968444162
4826,1545230.1222432298
4827,1.7342927094432526e-8
2,10, 1,10, 0,16, 0.00,60.00,Saturday
4973,-0.9626387525376066
4826,1449678.849089952
4827,7.571543392259628e-9
2,10, 1,10, 0,17, 0.00,60.00,Saturday
4973,-0.9462218958850339
4826,1474548.9762691532
4827,0.0
2,10, 1,10, 0,18, 0.00,60.00,Saturday
4973,-0.9348049067189339
4826,1479255.248905992
4827,4.425260158313904e-8
2,10, 1,10, 0,19, 0.00,60.00,Saturday
4973,-0.9330032388491293
4826,1519543.0811247619
4827,2.2612312022829429e-8
2,10, 1,10, 0,20, 0.00,60.00,Saturday
4973,-0.9317255279560068
4826,1433581.0279484234
4827,1.8340529095439707e-8
2,10, 1,10, 0,21, 0.00,60.00,Saturday
4973,-0.9303577664429729
4826,1409357.799629597
4827,4.6145487431203949e-8
2,10, 1,10, 0,22, 0.00,60.00,Saturday
4973,-0.9252871890279675
4826,1394183.1959958366
4827,3.182094587828033e-8
2,10, 1,10, 0,23, 0.00,60.00,Saturday
4973,-0.9181417654246082
4826,1391174.3753795564
4827,2.0514789866865614e-8
2,10, 1,10, 0,24, 0.00,60.00,Saturday
4973,-0.9114922993753022
4826,1366862.942368503
4827,7.909193300292827e-8
2,11, 1,11, 0, 1, 0.00,60.00,Sunday
4973,-0.9117455957903383
4826,1564656.2586616502
4827,4.3498857849044728e-8
2,11, 1,11, 0, 2, 0.00,60.00,Sunday
4973,-0.9157668915853587
4826,1627093.4469929473
4827,7.980816008057445e-8
2,11, 1,11, 0, 3, 0.00,60.00,Sunday
4973,-0.9221975908788866
4826,1658918.3977384302
4827,5.530296220968012e-8
2,11, 1,11, 0, 4, 0.00,60.00,Sunday
4973,-0.9254895670708354
4826,1669408.372427767
4827,5.156834959052503e-8
2,11, 1,11, 0, 5, 0.00,60.00,Sunday
4973,-0.9264834537992318
4826,1682154.4558587368
4827,2.5477220333414153e-8
2,11, 1,11, 0, 6, 0.00,60.00,Sunday
4973,-0.9282647622215455
4826,1699971.7853589515
4827,4.3434056351543407e-8
2,11, 1,11, 0, 7, 0.00,60.00,Sunday
4973,-0.930862971760792
4826,1714653.5743828193
4827,5.857714313606266e-8
2,11, 1,11, 0, 8, 0.00,60.00,Sunday
4973,-0.9321353766120863
4826,1697654.272964197
4827,4.1471253098279706e-8
2,11, 1,11, 0, 9, 0.00,60.00,Sunday
4973,-0.9308980640250492
4826,1677229.3582297976
4827,2.8751401259796695e-8
2,11, 1,11, 0,10, 0.00,60.00,Sunday
4973,-0.9259215685824084
4826,1600469.3622363304
4827,9.500240594206844e-8
2,11, 1,11, 0,11, 0.00,60.00,Sunday
4973,-0.9192749981821344
4826,1600781.0742823242
4827,5.2949644668842669e-8
2,11, 1,11, 0,12, 0.00,60.00,Sunday
4973,-0.9137753648108482
4826,1561150.7389104856
4827,4.04156708100345e-8
2,11, 1,11, 0,13, 0.00,60.00,Sunday
4973,-0.9097675527443985
4826,1528691.3828611205
4827,1.156195139628835e-8
2,11, 1,11, 0,14, 0.00,60.00,Sunday
4973,-0.9063757361774311
4826,1507248.245231714
4827,0.0
2,11, 1,11, 0,15, 0.00,60.00,Sunday
4973,-0.9030882539521566
4826,1417026.4532868383
4827,4.8908077587839219e-8
2,11, 1,11, 0,16, 0.00,60.00,Sunday
4973,-0.8992941108455306
4826,1386264.7833666006
4827,1.9900880943168887e-8
2,11, 1,11, 0,17, 0.00,60.00,Sunday
4973,-0.8974236233280835
4826,1425574.0659139839
4827,4.4713033275911587e-8
2,11, 1,11, 0,18, 0.00,60.00,Sunday
4973,-0.8968534516109595
4826,1414908.5711505828
4827,9.617906471248716e-9
2,11, 1,11, 0,19, 0.00,60.00,Sunday
4973,-0.8944584766571595
4826,1391920.975805018
4827,2.220303940703161e-8
2,11, 1,11, 0,20, 0.00,60.00,Sunday
4973,-0.891854656287636
4826,1251305.32630224
4827,3.425100203457987e-8
2,11, 1,11, 0,21, 0.00,60.00,Sunday
4973,-0.8892352405632292
4826,1194897.6594607165
4827,5.1670667744474488e-8
2,11, 1,11, 0,22, 0.00,60.00,Sunday
4973,-0.8864892549705151
4826,1177420.605739422
4827,4.9266191126662309e-8
2,11, 1,11, 0,23, 0.00,60.00,Sunday
4973,-0.8855553505422665
4826,1165306.797886475
4827,3.376499080331996e-9
2,11, 1,11, 0,24, 0.00,60.00,Sunday
4973,-0.8848987343321972
4826,1104085.0744215255
4827,3.688569449877832e-8
2,12, 1,12, 0, 1, 0.00,60.00,Monday
4973,-0.8859570351616767
4826,1246694.979476401
4827,4.3389393665295627e-8
2,12, 1,12, 0, 2, 0.00,60.00,Monday
4973,-0.887217480308966
4826,1258296.940456193
4827,3.084892341576051e-8
2,12, 1,12, 0, 3, 0.00,60.00,Monday
4973,-0.8890403786030418
4826,1289372.8186045034
4827,6.650680006714538e-9
2,12, 1,12, 0, 4, 0.00,60.00,Monday
4973,-0.8904221185217778
4826,1317849.8418465115
4827,5.65819391340483e-8
2,12, 1,12, 0, 5, 0.00,60.00,Monday
4973,-0.890292621673614
4826,1343934.5010098487
4827,6.05211880611023e-8
2,12, 1,12, 0, 6, 0.00,60.00,Monday
4973,-0.8886714436278953
4826,1368326.5189539323
4827,2.552837941038888e-8
2,12, 1,12, 0, 7, 0.00,60.00,Monday
4973,-0.885952741531422
4826,1384929.9677656973
4827,1.6780177247710527e-8
2,12, 1,12, 0, 8, 0.00,60.00,Monday
4973,-1.3370517218086025
4826,0.0
4827,0.0
2,12, 1,12, 0, 9, 0.00,60.00,Monday
4973,-1.5825553693784027
4826,0.0
4827,0.0
2,12, 1,12, 0,10, 0.00,60.00,Monday
4973,-1.5870991913888857
4826,0.0
4827,0.0
2,12, 1,12, 0,11, 0.00,60.00,Monday
4973,-1.5899519437522008
4826,0.0
4827,0.0
2,12, 1,12, 0,12, 0.00,60.00,Monday
4973,-1.5972098781979012
4826,0.0
4827,0.0
2,12, 1,12, 0,13, 0.00,60.00,Monday
4973,-1.6014070170067947
4826,0.0
4827,0.0
2,12, 1,12, 0,14, 0.00,60.00,Monday
4973,-1.6085730580260318
4826,0.0
4827,0.0
2,12, 1,12, 0,15, 0.00,60.00,Monday
4973,-1.6086232279509399
4826,0.0
4827,0.0
2,12, 1,12, 0,16, 0.00,60.00,Monday
4973,-1.6017513721441353
4826,0.0
4827,0.0
2,12, 1,12, 0,17, 0.00,60.00,Monday
4973,-1.592355864606193
4826,0.0
4827,0.0
2,12, 1,12, 0,18, 0.00,60.00,Monday
4973,-1.5841551920583928
4826,0.0
4827,0.0
2,12, 1,12, 0,19, 0.00,60.00,Monday
4973,-1.5836786759673596
4826,0.0
4827,0.0
2,12, 1,12, 0,20, 0.00,60.00,Monday
4973,-1.5784764565790726
4826,0.0
4827,0.0
2,12, 1,12, 0,21, 0.00,60.00,Monday
4973,-1.5823035270208017
4826,0.0
4827,0.0
2,12, 1,12, 0,22, 0.00,60.00,Monday
4973,-1.1174897178715846
4826,2190565.862978914
4827,8.011852514755447e-8
2,12, 1,12, 0,23, 0.00,60.00,Monday
4973,-0.959622843721837
4826,1489248.0754992406
4827,4.84988049720414e-8
2,12, 1,12, 0,24, 0.00,60.00,Monday
4973,-0.9483280583537259
4826,1374174.2152392599
4827,1.944044925039634e-9
2,13, 1,13, 0, 1, 0.00,60.00,Tuesday
4973,-0.9414050197497752
4826,1549021.6578769799
4827,4.786077985162608
2,13, 1,13, 0, 2, 0.00,60.00,Tuesday
4973,-0.935581666868198
4826,1538162.4609391485
4827,1.8212631403002889e-8
2,13, 1,13, 0, 3, 0.00,60.00,Tuesday
4973,-0.9304403010277651
4826,1529738.0250998014
4827,7.397602530545555e-8
2,13, 1,13, 0, 4, 0.00,60.00,Tuesday
4973,-0.9258775369456407
4826,1522137.1152007259
4827,6.169784683152102e-8
2,13, 1,13, 0, 5, 0.00,60.00,Tuesday
4973,-0.9215730828859415
4826,1519648.1735755248
4827,4.108073881070595e-8
2,13, 1,13, 0, 6, 0.00,60.00,Tuesday
4973,-0.917423201502452
4826,1521513.9113342176
4827,6.338609637168702e-8
2,13, 1,13, 0, 7, 0.00,60.00,Tuesday
4973,-0.914434793641229
4826,1521082.6512396497
4827,5.049400897405576e-8
2,13, 1,13, 0, 8, 0.00,60.00,Tuesday
4973,-1.3388400708680324