Program Version,EnergyPlus, Version 8.7.0-78a111df4a, YMD=2019.08.06 22:43
1,5,Environment Title[],Latitude[deg],Longitude[deg],Time Zone[],Elevation[m]
2,6,Day of Simulation[],Month[],Day of Month[],DST Indicator[1=yes 0=no],Hour[],StartMinute[],EndMinute[],DayType
3,3,Cumulative Day of Simulation[],Month[],Day of Month[],DST Indicator[1=yes 0=no],DayType  ! When Daily Report Variables Requested
4,2,Cumulative Days of Simulation[],Month[]  ! When Monthly Report Variables Requested
5,1,Cumulative Days of Simulation[] ! When Run Period Report Variables Requested
5408,1,3F-B-BED2,Zone Air Temperature [C] !Hourly
7437,1,3F-B-BED2 IDEAL LOADS AIR SYSTEM,Zone Ideal Loads Zone Total Heating Energy [J] !Hourly
7438,1,3F-B-BED2 IDEAL LOADS AIR SYSTEM,Zone Ideal Loads Zone Total Cooling Energy [J] !Hourly
7592,1,3F-B-BED2 BEDROOM-B,Zone Thermal Comfort Fanger Model PMV [] !Hourly
End of Data Dictionary
1,ANNUAL,  29.58, 106.47,   8.00, 259.10
2,1, 1, 1, 0, 1, 0.00,60.00,Sunday
7592,-0.9922976898598153
5408,18.00000000000001
7437,580117.5832945053
7438,0.0
2,1, 1, 1, 0, 2, 0.00,60.00,Sunday
7592,-0.9800714324972845
5408,18.0
7437,605665.2630652119
7438,0.0
2,1, 1, 1, 0, 3, 0.00,60.00,Sunday
7592,-0.9732676240801942
5408,18.000000000000005
7437,612449.2182989289
7438,0.0
2,1, 1, 1, 0, 4, 0.00,60.00,Sunday
7592,-0.970381103533818
5408,17.999999999999998
7437,633680.7795987758
7438,0.0
2,1, 1, 1, 0, 5, 0.00,60.00,Sunday
7592,-0.9701040618405573
5408,18.000000000000005
7437,676457.1112876752
7438,0.0
2,1, 1, 1, 0, 6, 0.00,60.00,Sunday
7592,-0.9711629485912257
5408,17.99999999999999
7437,723844.2849059533
7438,0.0
2,1, 1, 1, 0, 7, 0.00,60.00,Sunday
7592,-0.9733710656599142
5408,18.000000000000008
7437,766846.0682890434
7438,0.0
2,1, 1, 1, 0, 8, 0.00,60.00,Sunday
7592,-0.9754029846898268
5408,18.00000000000003
7437,797587.2103327809
7438,0.0
2,1, 1, 1, 0, 9, 0.00,60.00,Sunday
7592,-1.2094608764385935
5408,15.982784143233076
7437,0.0
7438,0.0
2,1, 1, 1, 0,10, 0.00,60.00,Sunday
7592,-1.4069749066999629
5408,15.371582714516594
7437,0.0
7438,0.0
2,1, 1, 1, 0,11, 0.00,60.00,Sunday
7592,-1.4433232820456826
5408,15.3847791629685
7437,0.0
7438,0.0
2,1, 1, 1, 0,12, 0.00,60.00,Sunday
7592,-1.4531739405498454
5408,15.422558852742613
7437,0.0
7438,0.0
2,1, 1, 1, 0,13, 0.00,60.00,Sunday
7592,-1.3103240032373374
5408,16.823046319169174
7437,728735.1153777279
7438,0.0
2,1, 1, 1, 0,14, 0.00,60.00,Sunday
7592,-1.0308155062906546
5408,18.000000004793536
7437,641787.8362348799
7438,0.0
2,1, 1, 1, 0,15, 0.00,60.00,Sunday
7592,-1.2038485842585399
5408,16.229926593659824
7437,0.0
7438,0.0
2,1, 1, 1, 0,16, 0.00,60.00,Sunday
7592,-1.3383320481805166
5408,15.867555896955324
7437,0.0
7438,0.0
2,1, 1, 1, 0,17, 0.00,60.00,Sunday
7592,-1.3304133334363069
5408,15.974403881123712
7437,0.0
7438,0.0
2,1, 1, 1, 0,18, 0.00,60.00,Sunday
7592,-1.3114580211232754
5408,16.064065524155028
7437,0.0
7438,0.0
2,1, 1, 1, 0,19, 0.00,60.00,Sunday
7592,-1.292282778486803
5408,16.118700179831323
7437,0.0
7438,0.0
2,1, 1, 1, 0,20, 0.00,60.00,Sunday
7592,-1.2837183013903058
5408,16.10244517210101
7437,0.0
7438,0.0
2,1, 1, 1, 0,21, 0.00,60.00,Sunday
7592,-1.3003857357986449
5408,15.992990469824833
7437,0.0
7438,0.0
2,1, 1, 1, 0,22, 0.00,60.00,Sunday
7592,-1.3346995844701937
5408,15.851976575075467
7437,0.0
7438,0.0
2,1, 1, 1, 0,23, 0.00,60.00,Sunday
7592,-1.060198335724949
5408,18.104734084168958
7437,812371.2458863488
7438,0.0
2,1, 1, 1, 0,24, 0.00,60.00,Sunday
7592,-0.9983888363583527
5408,18.000000000000008
7437,479351.2700721065
7438,0.0
2,2, 1, 2, 0, 1, 0.00,60.00,Monday
7592,-0.9929868218295462
5408,18.0
7437,573295.4855052405
7438,0.0
2,2, 1, 2, 0, 2, 0.00,60.00,Monday
7592,-0.9882861217166989
5408,17.99999999999999
7437,608058.2295506308
7438,0.0
2,2, 1, 2, 0, 3, 0.00,60.00,Monday
7592,-0.9862548837913919
5408,18.0
7437,627606.9023899626
7438,0.0
2,2, 1, 2, 0, 4, 0.00,60.00,Monday
7592,-0.9847021270953306
5408,18.00000000000001
7437,642447.3912450391
7438,0.0
2,2, 1, 2, 0, 5, 0.00,60.00,Monday
7592,-0.9835411370787677
5408,18.000000000000005
7437,658260.4852841358
7438,0.0
2,2, 1, 2, 0, 6, 0.00,60.00,Monday
7592,-0.9826645250387421
5408,18.0
7437,676682.164833403
7438,0.0
2,2, 1, 2, 0, 7, 0.00,60.00,Monday
7592,-0.9818624515770713
5408,18.000000000000019
7437,690662.3090305999
7438,0.0
2,2, 1, 2, 0, 8, 0.00,60.00,Monday
7592,-0.9817275293791679
5408,18.00000000000001
7437,697207.3762703308
7438,0.0
2,2, 1, 2, 0, 9, 0.00,60.00,Monday
7592,-1.2093118465031688
5408,16.04286528496444
7437,0.0
7438,0.0
2,2, 1, 2, 0,10, 0.00,60.00,Monday
7592,-1.385780997740073
5408,15.573181789122528
7437,0.0
7438,0.0
2,2, 1, 2, 0,11, 0.00,60.00,Monday
7592,-1.4050094454632592
5408,15.599179837971077
7437,0.0
7438,0.0
2,2, 1, 2, 0,12, 0.00,60.00,Monday
7592,-1.4094757223772643
5408,15.636279860254766
7437,0.0
7438,0.0
2,2, 1, 2, 0,13, 0.00,60.00,Monday
7592,-1.2775668686044426
5408,16.929282743178836
7437,668446.1364292435
7438,0.0
2,2, 1, 2, 0,14, 0.00,60.00,Monday
7592,-1.0262362636306175
5408,18.00000000874052
7437,522809.940555832
7438,0.0
2,2, 1, 2, 0,15, 0.00,60.00,Monday
7592,-1.1888710701026886
5408,16.369438023065255
7437,0.0
7438,0.0
2,2, 1, 2, 0,16, 0.00,60.00,Monday
7592,-1.3242155538298482
5408,15.93527967662221
7437,0.0
7438,0.0
2,2, 1, 2, 0,17, 0.00,60.00,Monday
7592,-1.3375228622462335
5408,15.923045594516103
7437,0.0
7438,0.0
2,2, 1, 2, 0,18, 0.00,60.00,Monday
7592,-1.354348152106385
5408,15.849352553153944
7437,0.0
7438,0.0
2,2, 1, 2, 0,19, 0.00,60.00,Monday
7592,-1.3758008458580422
5408,15.755033705791187
7437,0.0
7438,0.0
2,2, 1, 2, 0,20, 0.00,60.00,Monday
7592,-1.3944846777542992
5408,15.674497738256905
7437,0.0
7438,0.0
2,2, 1, 2, 0,21, 0.00,60.00,Monday
7592,-1.410559201946186
5408,15.613543473880034
7437,0.0
7438,0.0
2,2, 1, 2, 0,22, 0.00,60.00,Monday
7592,-1.4185277297532387
5408,15.586852387707263
7437,0.0
7438,0.0
2,2, 1, 2, 0,23, 0.00,60.00,Monday
7592,-1.0890535911868327
5408,18.10202930191684
7437,912284.507782477
7438,0.0
2,2, 1, 2, 0,24, 0.00,60.00,Monday
7592,-1.0013281302516835
5408,18.00000000000001
7437,580706.4685117314
7438,0.0
2,3, 1, 3, 0, 1, 0.00,60.00,Tuesday
7592,-0.9881332931509066
5408,18.0
7437,673373.5060128619
7438,0.0
2,3, 1, 3, 0, 2, 0.00,60.00,Tuesday
7592,-0.9810649164082653
5408,18.00000000000001
7437,726375.1974250767
7438,0.0
2,3, 1, 3, 0, 3, 0.00,60.00,Tuesday
7592,-0.9805979611775788
5408,18.000000000000019
7437,779725.373314988
7438,0.0
2,3, 1, 3, 0, 4, 0.00,60.00,Tuesday
7592,-0.9814726251377427
5408,18.000000000000019
7437,814865.8497373787
7438,0.0
2,3, 1, 3, 0, 5, 0.00,60.00,Tuesday
7592,-0.9824395768042787
5408,18.000000000000015
7437,830198.7372093158
7438,0.0
2,3, 1, 3, 0, 6, 0.00,60.00,Tuesday
7592,-0.9835766001888064
5408,17.999999999999984
7437,834164.5207693175
7438,0.0
2,3, 1, 3, 0, 7, 0.00,60.00,Tuesday
7592,-0.9842572618382941
5408,18.000000000000033
7437,820626.7300776352
7438,0.0
2,3, 1, 3, 0, 8, 0.00,60.00,Tuesday
7592,-0.9844590550323296
5408,17.999999999999994
7437,801432.1642094548
7438,0.0
2,3, 1, 3, 0, 9, 0.00,60.00,Tuesday
7592,-1.2146972683882929
5408,16.01372988424036
7437,0.0
7438,0.0
2,3, 1, 3, 0,10, 0.00,60.00,Tuesday
7592,-1.4144972179602276
5408,15.379560593978932
7437,0.0
7438,0.0
2,3, 1, 3, 0,11, 0.00,60.00,Tuesday
7592,-1.458838253898306
5408,15.35375766269763
7437,0.0
7438,0.0
2,3, 1, 3, 0,12, 0.00,60.00,Tuesday
7592,-1.4808442737524692
5408,15.33253424673046
7437,0.0
7438,0.0
2,3, 1, 3, 0,13, 0.00,60.00,Tuesday
7592,-1.344558407803154
5408,16.74997899033799
7437,826812.6210229476
7438,0.0
2,3, 1, 3, 0,14, 0.00,60.00,Tuesday
7592,-1.0494419187152616
5408,18.000000000005689
7437,860598.7246419191
7438,0.0
2,3, 1, 3, 0,15, 0.00,60.00,Tuesday
7592,-1.247597111894454
5408,15.986556983616206
7437,0.0
7438,0.0
2,3, 1, 3, 0,16, 0.00,60.00,Tuesday
7592,-1.4456460913736174
5408,15.347241905448393
7437,0.0
7438,0.0
2,3, 1, 3, 0,17, 0.00,60.00,Tuesday
7592,-1.4789106138760815
5408,15.316489127616352
7437,0.0
7438,0.0
2,3, 1, 3, 0,18, 0.00,60.00,Tuesday
7592,-1.495560811314898
5408,15.282285548929006
7437,0.0
7438,0.0
2,3, 1, 3, 0,19, 0.00,60.00,Tuesday
7592,-1.501875088802932
5408,15.269699628068317
7437,0.0
7438,0.0
2,3, 1, 3, 0,20, 0.00,60.00,Tuesday
7592,-1.5021420295591377
5408,15.263573617461875
7437,0.0
7438,0.0
2,3, 1, 3, 0,21, 0.00,60.00,Tuesday
7592,-1.5017413202138919
5408,15.254206526654898
7437,0.0
7438,0.0
2,3, 1, 3, 0,22, 0.00,60.00,Tuesday
7592,-1.5006050234329199
5408,15.245716465738134
7437,0.0
7438,0.0
2,3, 1, 3, 0,23, 0.00,60.00,Tuesday
7592,-1.1237448933874735
5408,18.097878567729404
7437,1241524.2444094956
7438,0.0
2,3, 1, 3, 0,24, 0.00,60.00,Tuesday
7592,-1.0131018905786003
5408,18.000000000000005
7437,795269.5355938829
7438,0.0
2,4, 1, 4, 0, 1, 0.00,60.00,Wednesday
7592,-0.9946194445317658
5408,18.000000000000047
7437,824888.4851973726
7438,0.0
2,4, 1, 4, 0, 2, 0.00,60.00,Wednesday
7592,-0.9855516949380188
5408,18.000000000000005
7437,818274.3820366914
7438,0.0
2,4, 1, 4, 0, 3, 0.00,60.00,Wednesday
7592,-0.9822442922208426
5408,17.999999999999998
7437,815558.8352876676
7438,0.0
2,4, 1, 4, 0, 4, 0.00,60.00,Wednesday
7592,-0.9803734124992746
5408,18.000000000000008
7437,815042.0587699113
7438,0.0
2,4, 1, 4, 0, 5, 0.00,60.00,Wednesday
7592,-0.9786458407279496
5408,18.000000000000005
7437,810920.345232965
7438,0.0
2,4, 1, 4, 0, 6, 0.00,60.00,Wednesday
7592,-0.9771170853998372
5408,18.000000000000005
7437,812053.175744526
7438,0.0
2,4, 1, 4, 0, 7, 0.00,60.00,Wednesday
7592,-0.9758229749149366
5408,17.999999999999984
7437,813726.2172460246
7438,0.0
2,4, 1, 4, 0, 8, 0.00,60.00,Wednesday
7592,-0.9751357849452355
5408,18.00000000000001
7437,809834.6342773829
7438,0.0
2,4, 1, 4, 0, 9, 0.00,60.00,Wednesday
7592,-1.2102665037161702
5408,15.946500902687257
7437,0.0
7438,0.0
2,4, 1, 4, 0,10, 0.00,60.00,Wednesday
7592,-1.4209070740078634
5408,15.303576216440894
7437,0.0
7438,0.0
2,4, 1, 4, 0,11, 0.00,60.00,Wednesday
7592,-1.4613024578858578
5408,15.278031615235243
7437,0.0
7438,0.0
2,4, 1, 4, 0,12, 0.00,60.00,Wednesday
7592,-1.484578663269594
5408,15.263840712158187
7437,0.0
7438,0.0
2,4, 1, 4, 0,13, 0.00,60.00,Wednesday
7592,-1.3451837628376274
5408,16.72818651527341
7437,831069.4505628618
7438,0.0
2,4, 1, 4, 0,14, 0.00,60.00,Wednesday
7592,-1.0475039434085172
5408,18.000000001586327
7437,857323.3443734405
7438,0.0
2,4, 1, 4, 0,15, 0.00,60.00,Wednesday
7592,-1.2456860453152273
5408,16.025974369488109
7437,0.0
7438,0.0
2,4, 1, 4, 0,16, 0.00,60.00,Wednesday
7592,-1.4214218231825289
5408,15.489152334598132
7437,0.0
7438,0.0
2,4, 1, 4, 0,17, 0.00,60.00,Wednesday
7592,-1.4452107320549004
5408,15.472518114258947
7437,0.0
7438,0.0
2,4, 1, 4, 0,18, 0.00,60.00,Wednesday
7592,-1.460472581833879
5408,15.423101931262324
7437,0.0
7438,0.0
2,4, 1, 4, 0,19, 0.00,60.00,Wednesday
7592,-1.472174748896311
5408,15.367769889505866
7437,0.0
7438,0.0
2,4, 1, 4, 0,20, 0.00,60.00,Wednesday
7592,-1.480750883824604
5408,15.315145825707625
7437,0.0
7438,0.0
2,4, 1, 4, 0,21, 0.00,60.00,Wednesday
7592,-1.4897732711509655
5408,15.268081158582165
7437,0.0
7438,0.0
2,4, 1, 4, 0,22, 0.00,60.00,Wednesday
7592,-1.4972824717505829
5408,15.235610131375366
7437,0.0
7438,0.0
2,4, 1, 4, 0,23, 0.00,60.00,Wednesday
7592,-1.1225580331433523
5408,18.09984451505744
7437,1243684.4325313688
7438,0.0
2,4, 1, 4, 0,24, 0.00,60.00,Wednesday
7592,-1.0143848641397995
5408,18.000000000000026
7437,798656.0440511846
7438,0.0
2,5, 1, 5, 0, 1, 0.00,60.00,Thursday
7592,-0.9990519896206358
5408,18.00000000000001
7437,822994.7445650154
7438,0.0
2,5, 1, 5, 0, 2, 0.00,60.00,Thursday
7592,-0.9923901597217872
5408,18.000000000000005
7437,806031.3774183728
7438,0.0
2,5, 1, 5, 0, 3, 0.00,60.00,Thursday
7592,-0.9912834731751962
5408,18.000000000000005
7437,800372.569174309
7438,0.0
2,5, 1, 5, 0, 4, 0.00,60.00,Thursday
7592,-0.9926404860647519
5408,18.000000000000005
7437,806841.2954708284
7438,0.0
2,5, 1, 5, 0, 5, 0.00,60.00,Thursday
7592,-0.9947873427921179
5408,18.000000000000015
7437,817826.1926308459
7438,0.0
2,5, 1, 5, 0, 6, 0.00,60.00,Thursday
7592,-0.9964836774428577
5408,17.99999999999999
7437,831333.9785616305
7438,0.0
2,5, 1, 5, 0, 7, 0.00,60.00,Thursday
7592,-0.9978801532401559
5408,18.0
7437,845847.6889233133
7438,0.0
2,5, 1, 5, 0, 8, 0.00,60.00,Thursday
7592,-0.999612616041451
5408,17.999999999999998
7437,855411.9674693156
7438,0.0
2,5, 1, 5, 0, 9, 0.00,60.00,Thursday
7592,-1.2397182632572157
5408,15.916577287606641
7437,0.0
7438,0.0
2,5, 1, 5, 0,10, 0.00,60.00,Thursday
7592,-1.455580176857751
5408,15.26587399063718
7437,0.0
7438,0.0
2,5, 1, 5, 0,11, 0.00,60.00,Thursday
7592,-1.4948224794345607
5408,15.244756175586327
7437,0.0
7438,0.0
2,5, 1, 5, 0,12, 0.00,60.00,Thursday
7592,-1.5140592331753944
5408,15.230372060734832
7437,0.0
7438,0.0
2,5, 1, 5, 0,13, 0.00,60.00,Thursday
7592,-1.3694846723289025
5408,16.70758817352498
7437,866108.8158429873
7438,0.0
2,5, 1, 5, 0,14, 0.00,60.00,Thursday
7592,-1.0598873291596059
5408,18.000000000037486
7437,914746.6652685379
7438,0.0
2,5, 1, 5, 0,15, 0.00,60.00,Thursday
7592,-1.2619879738466049
5408,15.948758719098665
7437,0.0
7438,0.0
2,5, 1, 5, 0,16, 0.00,60.00,Thursday
7592,-1.4514146883873354
5408,15.358635852184383
7437,0.0
7438,0.0
2,5, 1, 5, 0,17, 0.00,60.00,Thursday
7592,-1.4834999339116247
5408,15.339345338191445
7437,0.0
7438,0.0
2,5, 1, 5, 0,18, 0.00,60.00,Thursday
7592,-1.4963941995677273
5408,15.33244095558083
7437,0.0
7438,0.0
2,5, 1, 5, 0,19, 0.00,60.00,Thursday
7592,-1.502548231857946
5408,15.330708236339128
7437,0.0
7438,0.0
2,5, 1, 5, 0,20, 0.00,60.00,Thursday
7592,-1.5051476405221863
5408,15.32437531751534
7437,0.0
7438,0.0
2,5, 1, 5, 0,21, 0.00,60.00,Thursday
7592,-1.510770555227008
5408,15.295695531436956
7437,0.0
7438,0.0
2,5, 1, 5, 0,22, 0.00,60.00,Thursday
7592,-1.5198744813091272
5408,15.252840366865604
7437,0.0
7438,0.0
2,5, 1, 5, 0,23, 0.00,60.00,Thursday
7592,-1.1465060336800266
5408,18.10204235189768
7437,1274889.5276848274
7438,0.0
2,5, 1, 5, 0,24, 0.00,60.00,Thursday
7592,-1.0349268815901638
5408,18.0
7437,846150.3716994254
7438,0.0
2,6, 1, 6, 0, 1, 0.00,60.00,Friday
7592,-1.0128614960693148
5408,18.000000000000008
7437,886592.3915901637
7438,0.0
2,6, 1, 6, 0, 2, 0.00,60.00,Friday
7592,-1.0005786039731719
5408,18.000000000000019
7437,884915.2326802568
7438,0.0
2,6, 1, 6, 0, 3, 0.00,60.00,Friday
7592,-0.9937162386234878
5408,17.99999999999999
7437,877731.2115708367
7438,0.0
2,6, 1, 6, 0, 4, 0.00,60.00,Friday
7592,-0.9892755257452898
5408,18.000000000000008
7437,874389.274910145
7438,0.0
2,6, 1, 6, 0, 5, 0.00,60.00,Friday
7592,-0.9857830406203529
5408,18.000000000000008
7437,870152.6461606696
7438,0.0
2,6, 1, 6, 0, 6, 0.00,60.00,Friday
7592,-0.9829438200496495
5408,17.999999999999984
7437,862231.7497681751
7438,0.0
2,6, 1, 6, 0, 7, 0.00,60.00,Friday
7592,-0.9811866941881751
5408,18.000000000000019
7437,857093.1103920109
7438,0.0
2,6, 1, 6, 0, 8, 0.00,60.00,Friday
7592,-0.9814201013090487
5408,18.000000000000019
7437,854629.6564836152
7438,0.0
2,6, 1, 6, 0, 9, 0.00,60.00,Friday
7592,-1.218711204266228
5408,15.930636422742298
7437,0.0
7438,0.0
2,6, 1, 6, 0,10, 0.00,60.00,Friday
7592,-1.4203618705309705
5408,15.352759172308718
7437,0.0
7438,0.0
2,6, 1, 6, 0,11, 0.00,60.00,Friday
7592,-1.4486967055618505
5408,15.399765654822467
7437,0.0
7438,0.0
2,6, 1, 6, 0,12, 0.00,60.00,Friday
7592,-1.4567240348162889
5408,15.463098420191585
7437,0.0
7438,0.0
2,6, 1, 6, 0,13, 0.00,60.00,Friday
7592,-1.3145950823882522
5408,16.87280168894127
7437,719302.6162940521
7438,0.0
2,6, 1, 6, 0,14, 0.00,60.00,Friday
7592,-1.045873350235475
5408,18.000000024353456
7437,549854.3383355319
7438,0.0
2,6, 1, 6, 0,15, 0.00,60.00,Friday
7592,-1.2050259450407959
5408,16.410946123567716
7437,0.0
7438,0.0
2,6, 1, 6, 0,16, 0.00,60.00,Friday
7592,-1.339073345332044
5408,16.01503431605733
7437,0.0
7438,0.0
2,6, 1, 6, 0,17, 0.00,60.00,Friday
7592,-1.342152657929497
5408,16.03862814001812
7437,0.0
7438,0.0
2,6, 1, 6, 0,18, 0.00,60.00,Friday
7592,-1.3510420823023444
5408,15.97823197228623
7437,0.0
7438,0.0
2,6, 1, 6, 0,19, 0.00,60.00,Friday
7592,-1.3639741345826418
5408,15.884680408876314
7437,0.0
7438,0.0
2,6, 1, 6, 0,20, 0.00,60.00,Friday
7592,-1.3753354000003946
5408,15.796786402448268
7437,0.0
7438,0.0
2,6, 1, 6, 0,21, 0.00,60.00,Friday
7592,-1.3890987624205398
5408,15.70691864920647
7437,0.0
7438,0.0
2,6, 1, 6, 0,22, 0.00,60.00,Friday
7592,-1.4020838496167399
5408,15.629335893551899
7437,0.0
7438,0.0
2,6, 1, 6, 0,23, 0.00,60.00,Friday
7592,-1.0828272601023168
5408,18.112772703944228
7437,898741.2776651699
7438,0.0
2,6, 1, 6, 0,24, 0.00,60.00,Friday
7592,-1.0001246738460966
5408,18.000000000000015
7437,580020.9801602956
7438,0.0
2,7, 1, 7, 0, 1, 0.00,60.00,Saturday
7592,-0.9875594021678835
5408,18.000000000000005
7437,649237.6237782806
7438,0.0
2,7, 1, 7, 0, 2, 0.00,60.00,Saturday
7592,-0.9799120746164802
5408,18.0
7437,676260.0453625989
7438,0.0
2,7, 1, 7, 0, 3, 0.00,60.00,Saturday
7592,-0.9776739070402303
5408,17.999999999999998
7437,716532.9526433157
7438,0.0
2,7, 1, 7, 0, 4, 0.00,60.00,Saturday
7592,-0.9773536079853016
5408,18.00000000000001
7437,770688.9056221267
7438,0.0
2,7, 1, 7, 0, 5, 0.00,60.00,Saturday
7592,-0.9782354230227299
5408,18.000000000000026
7437,837738.12975578
7438,0.0
2,7, 1, 7, 0, 6, 0.00,60.00,Saturday
7592,-0.9797398260005313
5408,18.000000000000005
7437,903696.1518774101
7438,0.0
2,7, 1, 7, 0, 7, 0.00,60.00,Saturday
7592,-0.981317641519262
5408,18.00000000000003
7437,958119.4465157967
7438,0.0
2,7, 1, 7, 0, 8, 0.00,60.00,Saturday
7592,-0.9827542030790966
5408,17.999999999999987
7437,991974.1951025432
7438,0.0
2,7, 1, 7, 0, 9, 0.00,60.00,Saturday
7592,-1.2408443396727998
5408,15.779372795713279
7437,0.0
7438,0.0
2,7, 1, 7, 0,10, 0.00,60.00,Saturday
7592,-1.458971395318246
5408,15.126242949777696
7437,0.0
7438,0.0
2,7, 1, 7, 0,11, 0.00,60.00,Saturday
7592,-1.4993690173456236
5408,15.168690428992447
7437,0.0
7438,0.0
2,7, 1, 7, 0,12, 0.00,60.00,Saturday
7592,-1.5078888849423969
5408,15.254887124055785
7437,0.0
7438,0.0
2,7, 1, 7, 0,13, 0.00,60.00,Saturday
7592,-1.3503764428756356
5408,16.775584588569644
7437,764657.085677654
7438,0.0
2,7, 1, 7, 0,14, 0.00,60.00,Saturday
7592,-1.0577260971011727
5408,18.000000005888169
7437,616237.7748387915
7438,0.0
2,7, 1, 7, 0,15, 0.00,60.00,Saturday
7592,-1.2093124733649497
5408,16.42123807766146
7437,0.0
7438,0.0
2,7, 1, 7, 0,16, 0.00,60.00,Saturday
7592,-1.311999159470249
5408,16.197689747897777
7437,0.0
7438,0.0
2,7, 1, 7, 0,17, 0.00,60.00,Saturday
7592,-1.2920326231659474
5408,16.30839534778186
7437,0.0
7438,0.0
2,7, 1, 7, 0,18, 0.00,60.00,Saturday
7592,-1.2987146348991606
5408,16.265408782447495
7437,0.0
7438,0.0
2,7, 1, 7, 0,19, 0.00,60.00,Saturday
7592,-1.3110748594526827
5408,16.19430346602054
7437,0.0
7438,0.0
2,7, 1, 7, 0,20, 0.00,60.00,Saturday
7592,-1.3259251552120615
5408,16.110564054135855
7437,0.0
7438,0.0
2,7, 1, 7, 0,21, 0.00,60.00,Saturday
7592,-1.3411755029266342
5408,16.020083440029308
7437,0.0
7438,0.0
2,7, 1, 7, 0,22, 0.00,60.00,Saturday
7592,-1.3558558420778504
5408,15.935667343481813
7437,0.0
7438,0.0
2,7, 1, 7, 0,23, 0.00,60.00,Saturday
7592,-1.075517761643729
5408,18.117241150619724
7437,718504.4423707635
7438,0.0
2,7, 1, 7, 0,24, 0.00,60.00,Saturday
7592,-1.0121769662695817
5408,17.999999999999998
7437,379139.66486929
7438,0.0
2,8, 1, 8, 0, 1, 0.00,60.00,Sunday
7592,-1.002423285876465
5408,18.0
7437,467082.9883316603
7438,0.0
2,8, 1, 8, 0, 2, 0.00,60.00,Sunday
7592,-0.9926880121644658
5408,17.999999999999998
7437,493710.1883773604
7438,0.0
2,8, 1, 8, 0, 3, 0.00,60.00,Sunday
7592,-0.9871267441574064
5408,18.00000000000001
7437,518004.568279908
7438,0.0
2,8, 1, 8, 0, 4, 0.00,60.00,Sunday
7592,-0.9835052053808909
5408,18.000000000000019
7437,543689.1056907901
7438,0.0
2,8, 1, 8, 0, 5, 0.00,60.00,Sunday
7592,-0.9809101124113221
5408,18.00000000000001
7437,568052.1372463263
7438,0.0
2,8, 1, 8, 0, 6, 0.00,60.00,Sunday
7592,-0.9785491939056333
5408,18.00000000000001
7437,590259.5059820429
7438,0.0
2,8, 1, 8, 0, 7, 0.00,60.00,Sunday
7592,-0.977385081166911
5408,18.000000000000005
7437,604957.6097959799
7438,0.0
2,8, 1, 8, 0, 8, 0.00,60.00,Sunday
7592,-0.9771550224339237
5408,18.00000000000003
7437,613253.6609468248
7438,0.0
2,8, 1, 8, 0, 9, 0.00,60.00,Sunday
7592,-1.1952402465228034
5408,16.114852665229475
7437,0.0
7438,0.0
2,8, 1, 8, 0,10, 0.00,60.00,Sunday
7592,-1.3672758750087127
5408,15.64637594233762
7437,0.0
7438,0.0
2,8, 1, 8, 0,11, 0.00,60.00,Sunday
7592,-1.3852738474829048
5408,15.695709191623536
7437,0.0
7438,0.0
2,8, 1, 8, 0,12, 0.00,60.00,Sunday
7592,-1.3858451935758443
5408,15.76319235430591
7437,0.0
7438,0.0
2,8, 1, 8, 0,13, 0.00,60.00,Sunday
7592,-1.2544247690871596
5408,17.020127338519648
7437,574186.4933258493
7438,0.0
2,8, 1, 8, 0,14, 0.00,60.00,Sunday
7592,-1.0279761677801156
5408,18.000000025277456
7437,349851.3088714216
7438,0.0
2,8, 1, 8, 0,15, 0.00,60.00,Sunday
7592,-1.1771593744324565
5408,16.529289914755507
7437,0.0
7438,0.0
2,8, 1, 8, 0,16, 0.00,60.00,Sunday
7592,-1.298829628245845
5408,16.158118627904558
7437,0.0
7438,0.0
2,8, 1, 8, 0,17, 0.00,60.00,Sunday
7592,-1.305866645084834
5408,16.183247860622715
7437,0.0
7438,0.0
2,8, 1, 8, 0,18, 0.00,60.00,Sunday
7592,-1.312283745890291
5408,16.164295250779419
7437,0.0
7438,0.0
2,8, 1, 8, 0,19, 0.00,60.00,Sunday
7592,-1.3203482317212668
5408,16.107750349676207
7437,0.0
7438,0.0
2,8, 1, 8, 0,20, 0.00,60.00,Sunday
7592,-1.3313767424655312
5408,16.041687990011878
7437,0.0
7438,0.0
2,8, 1, 8, 0,21, 0.00,60.00,Sunday
7592,-1.3411546046520507
5408,15.98674330008685
7437,0.0
7438,0.0
2,8, 1, 8, 0,22, 0.00,60.00,Sunday
7592,-1.3459148083870936
5408,15.954326092047877
7437,0.0
7438,0.0
2,8, 1, 8, 0,23, 0.00,60.00,Sunday
7592,-1.0625423604842246
5408,18.113336191798468
7437,665312.7284253165
7438,0.0
2,8, 1, 8, 0,24, 0.00,60.00,Sunday
7592,-0.9983965456948272
5408,18.00000000000001
7437,326770.6110713809
7438,0.0
2,9, 1, 9, 0, 1, 0.00,60.00,Monday
7592,-0.9881212912325875
5408,18.0
7437,428085.0737662846
7438,0.0
2,9, 1, 9, 0, 2, 0.00,60.00,Monday
7592,-0.9798019649574346
5408,18.000000000000019
7437,473064.1822535362
7438,0.0
2,9, 1, 9, 0, 3, 0.00,60.00,Monday
7592,-0.9749066650423233
5408,18.000000000000005
7437,498451.818569667
7438,0.0
2,9, 1, 9, 0, 4, 0.00,60.00,Monday
7592,-0.9720206172354438
5408,18.0
7437,506723.4281097317
7438,0.0
2,9, 1, 9, 0, 5, 0.00,60.00,Monday
7592,-0.9700752548342239
5408,18.000000000000005
7437,512701.50019515436
7438,0.0
2,9, 1, 9, 0, 6, 0.00,60.00,Monday
7592,-0.9687339814254047
5408,18.000000000000015
7437,520996.43068541996
7438,0.0
2,9, 1, 9, 0, 7, 0.00,60.00,Monday
7592,-0.968399268919652
5408,18.00000000000001
7437,529542.4632644625
7438,0.0
2,9, 1, 9, 0, 8, 0.00,60.00,Monday
7592,-0.9690876267882218
5408,18.00000000000001
7437,536901.6400845568
7438,0.0
2,9, 1, 9, 0, 9, 0.00,60.00,Monday
7592,-1.1780194052114446
5408,16.19348854614437
7437,0.0
7438,0.0
2,9, 1, 9, 0,10, 0.00,60.00,Monday
7592,-1.3464220766411679
5408,15.709500490491033
7437,0.0
7438,0.0
2,9, 1, 9, 0,11, 0.00,60.00,Monday
7592,-1.3736310598294479
5408,15.694466863400863
7437,0.0
7438,0.0
2,9, 1, 9, 0,12, 0.00,60.00,Monday
7592,-1.3861159964362553
5408,15.691899301443362
7437,0.0
7438,0.0
2,9, 1, 9, 0,13, 0.00,60.00,Monday
7592,-1.2645651628756594
5408,16.939547681688187
7437,652683.468464761
7438,0.0
2,9, 1, 9, 0,14, 0.00,60.00,Monday
7592,-1.018756814910575
5408,18.000000006279835
7437,530211.4968923854
7438,0.0
2,9, 1, 9, 0,15, 0.00,60.00,Monday
7592,-1.1935061028501258
5408,16.27195455686884
7437,0.0
7438,0.0
2,9, 1, 9, 0,16, 0.00,60.00,Monday
7592,-1.346559833873117
5408,15.793838404751116
7437,0.0
7438,0.0
2,9, 1, 9, 0,17, 0.00,60.00,Monday
7592,-1.3700418538280515
5408,15.76216077252169
7437,0.0
7438,0.0
2,9, 1, 9, 0,18, 0.00,60.00,Monday
7592,-1.3838987706168229
5408,15.731828101389733
7437,0.0
7438,0.0
2,9, 1, 9, 0,19, 0.00,60.00,Monday
7592,-1.3901784622061353
5408,15.719863305009918
7437,0.0
7438,0.0
2,9, 1, 9, 0,20, 0.00,60.00,Monday
7592,-1.3926800247347829
5408,15.709244873731445
7437,0.0
7438,0.0
2,9, 1, 9, 0,21, 0.00,60.00,Monday
7592,-1.3963972201338236
5408,15.693628842609867
7437,0.0
7438,0.0
2,9, 1, 9, 0,22, 0.00,60.00,Monday
7592,-1.3997900115484108
5408,15.681601343537734
7437,0.0
7438,0.0
2,9, 1, 9, 0,23, 0.00,60.00,Monday
7592,-1.0839601841661242
5408,18.108543706706706
7437,868204.3728982782
7438,0.0
2,9, 1, 9, 0,24, 0.00,60.00,Monday
7592,-1.0061688412455375
5408,18.0
7437,459153.48771098596
7438,0.0
2,10, 1,10, 0, 1, 0.00,60.00,Tuesday
7592,-0.9955823385446984
5408,18.000000000000005
7437,501186.36492702297
7438,0.0
2,10, 1,10, 0, 2, 0.00,60.00,Tuesday
7592,-0.9886502769687798
5408,18.000000000000015
7437,497552.0750288805
7438,0.0
2,10, 1,10, 0, 3, 0.00,60.00,Tuesday
7592,-0.9855831670927689
5408,18.000000000000005
7437,494274.2816874904
7438,0.0
2,10, 1,10, 0, 4, 0.00,60.00,Tuesday
7592,-0.9838154220064777
5408,18.00000000000001
7437,495565.03590807077
7438,0.0
2,10, 1,10, 0, 5, 0.00,60.00,Tuesday
7592,-0.9819718687350171
5408,18.000000000000019
7437,498209.3544710848
7438,0.0
2,10, 1,10, 0, 6, 0.00,60.00,Tuesday
7592,-0.9803469090466047
5408,18.000000000000005
7437,507263.2703335262
7438,0.0
2,10, 1,10, 0, 7, 0.00,60.00,Tuesday
7592,-0.9791034970439801
5408,18.00000000000001
7437,515840.86823476236
7438,0.0
2,10, 1,10, 0, 8, 0.00,60.00,Tuesday
7592,-0.9788766598481087
5408,18.000000000000005
7437,518594.5919052794
7438,0.0
2,10, 1,10, 0, 9, 0.00,60.00,Tuesday
7592,-1.1830050666587307
5408,16.216666363349494
7437,0.0
7438,0.0
2,10, 1,10, 0,10, 0.00,60.00,Tuesday
7592,-1.349434511437197
5408,15.729134416859566
7437,0.0
7438,0.0
2,10, 1,10, 0,11, 0.00,60.00,Tuesday
7592,-1.3757159037111378
5408,15.72550343345869
7437,0.0
7438,0.0
2,10, 1,10, 0,12, 0.00,60.00,Tuesday
7592,-1.3858102950326899
5408,15.756208014285548
7437,0.0
7438,0.0
2,10, 1,10, 0,13, 0.00,60.00,Tuesday
7592,-1.2618766296928273
5408,17.003546726429609
7437,595355.5625048725
7438,0.0
2,10, 1,10, 0,14, 0.00,60.00,Tuesday
7592,-1.0331963494095365
5408,18.000000027329368
7437,397215.3365401582
7438,0.0
2,10, 1,10, 0,15, 0.00,60.00,Tuesday
7592,-1.1798565293103425
5408,16.528877316359926
7437,0.0
7438,0.0
2,10, 1,10, 0,16, 0.00,60.00,Tuesday
7592,-1.2901899942383415
5408,16.201552690307954
7437,0.0
7438,0.0
2,10, 1,10, 0,17, 0.00,60.00,Tuesday
7592,-1.2858200814227686
5408,16.225603848025047
7437,0.0
7438,0.0
2,10, 1,10, 0,18, 0.00,60.00,Tuesday
7592,-1.2956352753132837
5408,16.15484932331726
7437,0.0
7438,0.0
2,10, 1,10, 0,19, 0.00,60.00,Tuesday
7592,-1.313406953608444
5408,16.049425996211516
7437,0.0
7438,0.0
2,10, 1,10, 0,20, 0.00,60.00,Tuesday
7592,-1.3313290265232752
5408,15.957216308406152
7437,0.0
7438,0.0
2,10, 1,10, 0,21, 0.00,60.00,Tuesday
7592,-1.3443457538882429
5408,15.894339306611366
7437,0.0
7438,0.0
2,10, 1,10, 0,22, 0.00,60.00,Tuesday
7592,-1.349197570268858
5408,15.870196210896092
7437,0.0
7438,0.0
2,10, 1,10, 0,23, 0.00,60.00,Tuesday
7592,-1.056446234737715
5408,18.113297581162013
7437,713992.1703802894
7438,0.0
2,10, 1,10, 0,24, 0.00,60.00,Tuesday
7592,-0.9876467728286634
5408,18.000000000000005
7437,377184.6635457875
7438,0.0
2,11, 1,11, 0, 1, 0.00,60.00,Wednesday
7592,-0.979077941676758
5408,18.00000000000001
7437,486861.0855705688
7438,0.0
2,11, 1,11, 0, 2, 0.00,60.00,Wednesday
7592,-0.9747967760711026
5408,17.999999999999984
7437,547967.1049195298
7438,0.0
2,11, 1,11, 0, 3, 0.00,60.00,Wednesday
7592,-0.9743221583801272
5408,18.00000000000001
7437,584600.1950451344
7438,0.0
2,11, 1,11, 0, 4, 0.00,60.00,Wednesday
7592,-0.9743349965694611
5408,18.0
7437,603387.4659488979
7438,0.0
2,11, 1,11, 0, 5, 0.00,60.00,Wednesday
7592,-0.9740038944138565
5408,18.0
7437,622139.987332115
7438,0.0
2,11, 1,11, 0, 6, 0.00,60.00,Wednesday
7592,-0.974952454183797
5408,17.999999999999987
7437,646819.7305985731
7438,0.0
2,11, 1,11, 0, 7, 0.00,60.00,Wednesday
7592,-0.9766390355621096
5408,17.999999999999987
7437,671516.8937450892
7438,0.0
2,11, 1,11, 0, 8, 0.00,60.00,Wednesday
7592,-0.9779002498977357
5408,18.000000000000005
7437,670785.061581874
7438,0.0
2,11, 1,11, 0, 9, 0.00,60.00,Wednesday
7592,-1.2015827069349785
5408,16.07407914970751
7437,0.0
7438,0.0
2,11, 1,11, 0,10, 0.00,60.00,Wednesday
7592,-1.373508239694063
5408,15.608369801938564
7437,0.0
7438,0.0
2,11, 1,11, 0,11, 0.00,60.00,Wednesday
7592,-1.3951494750187126
5408,15.615078582790531
7437,0.0
7438,0.0
2,11, 1,11, 0,12, 0.00,60.00,Wednesday
7592,-1.403203299151136
5408,15.619760407275722
7437,0.0
7438,0.0
2,11, 1,11, 0,13, 0.00,60.00,Wednesday
7592,-1.2759994045599959
5408,16.904377154454669
7437,687127.4364014007
7438,0.0
2,11, 1,11, 0,14, 0.00,60.00,Wednesday
7592,-1.020754435965501
5408,18.000000000126929
7437,595168.1272346168
7438,0.0
2,11, 1,11, 0,15, 0.00,60.00,Wednesday
7592,-1.201107773536381
5408,16.21746472825407
7437,0.0
7438,0.0
2,11, 1,11, 0,16, 0.00,60.00,Wednesday
7592,-1.3615150636318854
5408,15.693222480673166
7437,0.0
7438,0.0
2,11, 1,11, 0,17, 0.00,60.00,Wednesday
7592,-1.3888935804185545
5408,15.662644581826685
7437,0.0
7438,0.0
2,11, 1,11, 0,18, 0.00,60.00,Wednesday
7592,-1.4022174387131348
5408,15.639112114392559
7437,0.0
7438,0.0
2,11, 1,11, 0,19, 0.00,60.00,Wednesday
7592,-1.407646145093418
5408,15.633094173297286
7437,0.0
7438,0.0
2,11, 1,11, 0,20, 0.00,60.00,Wednesday
7592,-1.4087791811605604
5408,15.640334322797047
7437,0.0
7438,0.0
2,11, 1,11, 0,21, 0.00,60.00,Wednesday
7592,-1.408513026790602
5408,15.647436766499205
7437,0.0
7438,0.0
2,11, 1,11, 0,22, 0.00,60.00,Wednesday
7592,-1.408750665087311
5408,15.651996920205969
7437,0.0
7438,0.0
2,11, 1,11, 0,23, 0.00,60.00,Wednesday
7592,-1.0889021974247113
5408,18.11180900917767
7437,881828.8613965497
7438,0.0
2,11, 1,11, 0,24, 0.00,60.00,Wednesday
7592,-1.0117232436501594
5408,17.999999999999998
7437,473035.32468273906
7438,0.0
2,12, 1,12, 0, 1, 0.00,60.00,Thursday
7592,-1.0030234175156985
5408,18.000000000000008
7437,516933.007285899
7438,0.0
2,12, 1,12, 0, 2, 0.00,60.00,Thursday
7592,-0.9986301607487241
5408,18.00000000000001
7437,520300.510873612
7438,0.0