Program Version,EnergyPlus, Version 8.7.0-78a111df4a, YMD=2019.06.21 03:07
1,5,Environment Title[],Latitude[deg],Longitude[deg],Time Zone[],Elevation[m]
2,6,Day of Simulation[],Month[],Day of Month[],DST Indicator[1=yes 0=no],Hour[],StartMinute[],EndMinute[],DayType
3,3,Cumulative Day of Simulation[],Month[],Day of Month[],DST Indicator[1=yes 0=no],DayType  ! When Daily Report Variables Requested
4,2,Cumulative Days of Simulation[],Month[]  ! When Monthly Report Variables Requested
5,1,Cumulative Days of Simulation[] ! When Run Period Report Variables Requested
1929,1,THERMAL ZONE: SPACE 201,Zone Air Temperature [C] !Hourly
2695,1,THERMAL ZONE: SPACE 201 PEOPLE,Zone Thermal Comfort Fanger Model PMV [] !Hourly
3063,1,THERMAL ZONE: SPACE 305 PTHP,Zone Packaged Terminal Heat Pump Total Heating Energy [J] !Hourly
3064,1,THERMAL ZONE: SPACE 305 PTHP,Zone Packaged Terminal Heat Pump Total Cooling Energy [J] !Hourly
End of Data Dictionary
1,ANN HTG 99.6% CONDNS DB,  29.58, 106.47,   8.00, 259.10
2,1, 1,21, 0, 1, 0.00,60.00,WinterDesignDay
2695,-6.493923253054277
1929,18.00006590184086
3063,4651571.68099215
3064,0.0
2,1, 1,21, 0, 2, 0.00,60.00,WinterDesignDay
2695,-6.497837498450843
1929,18.0000498187715
3063,4670630.551428436
3064,0.0
2,1, 1,21, 0, 3, 0.00,60.00,WinterDesignDay
2695,-6.501101823034037
1929,18.00003578176405
3063,4690419.239132315
3064,0.0
2,1, 1,21, 0, 4, 0.00,60.00,WinterDesignDay
2695,-6.503963928366637
1929,18.000030335929528
3063,4708151.1134337
3064,0.0
2,1, 1,21, 0, 5, 0.00,60.00,WinterDesignDay
2695,-6.506682926928843
1929,18.000023918488784
3063,4728335.554450687
3064,0.0
2,1, 1,21, 0, 6, 0.00,60.00,WinterDesignDay
2695,-6.508937091659816
1929,17.99999593074271
3063,4758648.844301563
3064,0.0
2,1, 1,21, 0, 7, 0.00,60.00,WinterDesignDay
2695,-5.677540318115775
1929,17.999927529774824
3063,4797709.703670616
3064,0.0
2,1, 1,21, 0, 8, 0.00,60.00,WinterDesignDay
2695,-5.67464798534774
1929,17.99983348409723
3063,5184134.744264681
3064,0.0
2,1, 1,21, 0, 9, 0.00,60.00,WinterDesignDay
2695,-5.319475347539917
1929,18.000098994505753
3063,6309135.471033408
3064,0.0
2,1, 1,21, 0,10, 0.00,60.00,WinterDesignDay
2695,-5.3006564096249859
1929,18.000705977856084
3063,7303255.562282931
3064,0.0
2,1, 1,21, 0,11, 0.00,60.00,WinterDesignDay
2695,-5.2887686552269559
1929,18.00090005086965
3063,7019914.006230231
3064,0.0
2,1, 1,21, 0,12, 0.00,60.00,WinterDesignDay
2695,-5.281018923458386
1929,18.0009271376402
3063,6833438.761224053
3064,0.0
2,1, 1,21, 0,13, 0.00,60.00,WinterDesignDay
2695,-5.276787345792809
1929,18.00084126231448
3063,6364599.388781015
3064,0.0
2,1, 1,21, 0,14, 0.00,60.00,WinterDesignDay
2695,-5.273173846481146
1929,18.000817408470309
3063,6291417.214498647
3064,0.0
2,1, 1,21, 0,15, 0.00,60.00,WinterDesignDay
2695,-5.268534886079499
1929,18.00096277375014
3063,6554401.1943342969
3064,0.0
2,1, 1,21, 0,16, 0.00,60.00,WinterDesignDay
2695,-5.266700948384871
1929,18.00108999921061
3063,6541808.559246182
3064,0.0
2,1, 1,21, 0,17, 0.00,60.00,WinterDesignDay
2695,-5.267973047593737
1929,18.00114846189499
3063,6599123.092287347
3064,0.0
2,1, 1,21, 0,18, 0.00,60.00,WinterDesignDay
2695,-5.270332608845378
1929,18.001194973227095
3063,6686136.71971859
3064,0.0
2,1, 1,21, 0,19, 0.00,60.00,WinterDesignDay
2695,-5.615550965199323
1929,18.000683344008058
3063,5221253.4019327559
3064,0.0
2,1, 1,21, 0,20, 0.00,60.00,WinterDesignDay
2695,-5.631120117684762
1929,18.000359405128824
3063,5397751.838691045
3064,0.0
2,1, 1,21, 0,21, 0.00,60.00,WinterDesignDay
2695,-5.641433929947122
1929,18.000188996266009
3063,4568496.568427078
3064,0.0
2,1, 1,21, 0,22, 0.00,60.00,WinterDesignDay
2695,-5.649450278960971
1929,18.00011533592259
3063,4612362.157774039
3064,0.0
2,1, 1,21, 0,23, 0.00,60.00,WinterDesignDay
2695,-5.65509831605696
1929,18.00008771974257
3063,4633127.627256776
3064,0.0
2,1, 1,21, 0,24, 0.00,60.00,WinterDesignDay
2695,-5.6596888967159979
1929,18.000075290345604
3063,4646772.533611542
3064,0.0
1,ANN CLG 4% CONDNS DB =>MWB,  29.58, 106.47,   8.00, 259.10
2,1, 7,21, 0, 1, 0.00,60.00,SummerDesignDay
2695,-3.153132323778381
1929,25.999759798970407
3063,0.0
3064,880349.6981740017
2,1, 7,21, 0, 2, 0.00,60.00,SummerDesignDay
2695,-3.1633782731228039
1929,25.999831091778959
3063,0.0
3064,847894.3689489904
2,1, 7,21, 0, 3, 0.00,60.00,SummerDesignDay
2695,-3.171319880073611
1929,25.999879999080407
3063,0.0
3064,820759.3442215951
2,1, 7,21, 0, 4, 0.00,60.00,SummerDesignDay
2695,-3.1777863526428389
1929,25.999910605107247
3063,0.0
3064,797385.8223822216
2,1, 7,21, 0, 5, 0.00,60.00,SummerDesignDay
2695,-3.18337544735499
1929,25.999932116729196
3063,0.0
3064,775176.0948895726
2,1, 7,21, 0, 6, 0.00,60.00,SummerDesignDay
2695,-3.18822810314593
1929,25.99996123167521
3063,0.0
3064,749831.9845779223
2,1, 7,21, 0, 7, 0.00,60.00,SummerDesignDay
2695,-3.891528171570927
1929,25.999996608533708
3063,0.0
3064,719735.1862090667
2,1, 7,21, 0, 8, 0.00,60.00,SummerDesignDay
2695,-3.868572924586507
1929,25.999681762329954
3063,0.0
3064,1124648.6809328239
2,1, 7,21, 0, 9, 0.00,60.00,SummerDesignDay
2695,-3.8104087140209446
1929,25.996907821812468
3063,0.0
3064,3786688.9054986496
2,1, 7,21, 0,10, 0.00,60.00,SummerDesignDay
2695,-3.659965484191551
1929,26.581133317721084
3063,0.0
3064,6869532.415372408
2,1, 7,21, 0,11, 0.00,60.00,SummerDesignDay
2695,-3.546934927112995
1929,26.98462764985904
3063,0.0
3064,6972647.180237183
2,1, 7,21, 0,12, 0.00,60.00,SummerDesignDay
2695,-3.476945383133119
1929,27.286078221857136
3063,0.0
3064,6913280.128878182
2,1, 7,21, 0,13, 0.00,60.00,SummerDesignDay
2695,-3.513753175020908
1929,26.963700983811476
3063,0.0
3064,6568453.856476813
2,1, 7,21, 0,14, 0.00,60.00,SummerDesignDay
2695,-3.5202702634619089
1929,27.019393176578978
3063,0.0
3064,6329358.500417517
2,1, 7,21, 0,15, 0.00,60.00,SummerDesignDay
2695,-3.410215482192014
1929,27.62872497074225
3063,0.0
3064,6660071.0902687539
2,1, 7,21, 0,16, 0.00,60.00,SummerDesignDay
2695,-3.364725105211549
1929,27.675094187076785
3063,0.0
3064,6920075.556364917
2,1, 7,21, 0,17, 0.00,60.00,SummerDesignDay
2695,-3.380331400844579
1929,27.552294494207563
3063,0.0
3064,7013252.630713225
2,1, 7,21, 0,18, 0.00,60.00,SummerDesignDay
2695,-3.4072756459050175
1929,27.377785244461238
3063,0.0
3064,7108301.436963305
2,1, 7,21, 0,19, 0.00,60.00,SummerDesignDay
2695,-3.581236414156345
1929,26.047499555738669
3063,0.0
3064,4159099.5332599489
2,1, 7,21, 0,20, 0.00,60.00,SummerDesignDay
2695,-3.691423118384531
1929,25.997020851880398
3063,0.0
3064,3389860.759110705
2,1, 7,21, 0,21, 0.00,60.00,SummerDesignDay
2695,-3.725503374385143
1929,25.99858562100852
3063,0.0
3064,1360420.9528448473
2,1, 7,21, 0,22, 0.00,60.00,SummerDesignDay
2695,-3.777562862814531
1929,25.99917318828032
3063,0.0
3064,1133036.3793080659
2,1, 7,21, 0,23, 0.00,60.00,SummerDesignDay
2695,-3.808897944222594
1929,25.99947589667857
3063,0.0
3064,1018493.2907487061
2,1, 7,21, 0,24, 0.00,60.00,SummerDesignDay
2695,-3.8294405778901194
1929,25.99966029267642
3063,0.0
3064,948495.5121781405
1,RUN PERIOD 1,  29.58, 106.47,   8.00, 259.10
2,1, 1, 1, 0, 1, 0.00,60.00,Holiday
2695,-6.116872033509753
1929,18.000204244065313
3063,1711927.7795061386
3064,0.0
2,1, 1, 1, 0, 2, 0.00,60.00,Holiday
2695,-6.120094929433094
1929,18.00008000393321
3063,1739605.7372708242
3064,0.0
2,1, 1, 1, 0, 3, 0.00,60.00,Holiday
2695,-6.121733681137236
1929,18.000056035728357
3063,1743818.095746315
3064,0.0
2,1, 1, 1, 0, 4, 0.00,60.00,Holiday
2695,-6.123570415372665
1929,18.00007459915783
3063,1742693.789957756
3064,0.0
2,1, 1, 1, 0, 5, 0.00,60.00,Holiday
2695,-6.126766552287553
1929,18.000128185576985
3063,1737293.85029713
3064,0.0
2,1, 1, 1, 0, 6, 0.00,60.00,Holiday
2695,-6.133637377605132
1929,18.000164497501623
3063,1677212.3465701675
3064,0.0
2,1, 1, 1, 0, 7, 0.00,60.00,Holiday
2695,-6.539992816150313
1929,18.000124005514043
3063,1724109.6976330309
3064,0.0
2,1, 1, 1, 0, 8, 0.00,60.00,Holiday
2695,-6.549168055237124
1929,18.00007995543942
3063,1784224.1579486558
3064,0.0
2,1, 1, 1, 0, 9, 0.00,60.00,Holiday
2695,-6.055217176385249
1929,18.00004028188823
3063,1843456.2521200255
3064,0.0
2,1, 1, 1, 0,10, 0.00,60.00,Holiday
2695,-6.058040480238577
1929,18.000008998263526
3063,1906997.1663639798
3064,0.0
2,1, 1, 1, 0,11, 0.00,60.00,Holiday
2695,-6.058961711197333
1929,18.000005588147805
3063,1949543.9687116047
3064,0.0
2,1, 1, 1, 0,12, 0.00,60.00,Holiday
2695,-6.059622475970425
1929,18.00000227996111
3063,1970920.9735377483
3064,0.0
2,1, 1, 1, 0,13, 0.00,60.00,Holiday
2695,-6.060390699523421
1929,18.000000669132786
3063,2013117.7850730119
3064,0.0
2,1, 1, 1, 0,14, 0.00,60.00,Holiday
2695,-6.059157939822451
1929,18.000000554646538
3063,2052908.8232545718
3064,0.0
2,1, 1, 1, 0,15, 0.00,60.00,Holiday
2695,-6.055581581991532
1929,18.000000447027369
3063,2077400.9570884929
3064,0.0
2,1, 1, 1, 0,16, 0.00,60.00,Holiday
2695,-6.049511989825838
1929,18.00000034828309
3063,2089019.8251568056
3064,0.0
2,1, 1, 1, 0,17, 0.00,60.00,Holiday
2695,-6.0408726044999849
1929,18.00000027195213
3063,2085240.894048355
3064,0.0
2,1, 1, 1, 0,18, 0.00,60.00,Holiday
2695,-6.030089854657567
1929,18.00000022442259
3063,2059990.3637061946
3064,0.0
2,1, 1, 1, 0,19, 0.00,60.00,Holiday
2695,-6.511950725072684
1929,18.000000198975596
3063,2010751.148453669
3064,0.0
2,1, 1, 1, 0,20, 0.00,60.00,Holiday
2695,-6.499323021163733
1929,18.00000020259934
3063,1921112.99745927
3064,0.0
2,1, 1, 1, 0,21, 0.00,60.00,Holiday
2695,-6.492164678228456
1929,18.000051400729693
3063,1807920.735711995
3064,0.0
2,1, 1, 1, 0,22, 0.00,60.00,Holiday
2695,-6.492316492930757
1929,18.000281236648758
3063,1722684.1283999428
3064,0.0
2,1, 1, 1, 0,23, 0.00,60.00,Holiday
2695,-6.497643889705148
1929,18.000375650000377
3063,1684435.9058925324
3064,0.0
2,1, 1, 1, 0,24, 0.00,60.00,Holiday
2695,-6.505028751959435
1929,18.000368883197088
3063,1675228.2906376187
3064,0.0
2,2, 1, 2, 0, 1, 0.00,60.00,Holiday
2695,-6.512018303347237
1929,18.000337153136849
3063,1675505.5214379878
3064,0.0
2,2, 1, 2, 0, 2, 0.00,60.00,Holiday
2695,-6.519084944435966
1929,18.00027658945307
3063,1689412.104031866
3064,0.0
2,2, 1, 2, 0, 3, 0.00,60.00,Holiday
2695,-6.525541802178435
1929,18.00020112620177
3063,1712288.9380227649
3064,0.0
2,2, 1, 2, 0, 4, 0.00,60.00,Holiday
2695,-6.530610368277337
1929,18.000142345672058
3063,1734567.9524201109
3064,0.0
2,2, 1, 2, 0, 5, 0.00,60.00,Holiday
2695,-6.534740969335863
1929,18.000102958711009
3063,1756640.3675569446
3064,0.0
2,2, 1, 2, 0, 6, 0.00,60.00,Holiday
2695,-6.538340365755508
1929,18.000076724628614
3063,1780475.91026187
3064,0.0
2,2, 1, 2, 0, 7, 0.00,60.00,Holiday
2695,-6.642057986565629
1929,18.00006592559866
3063,1804118.4606906092
3064,0.0
2,2, 1, 2, 0, 8, 0.00,60.00,Holiday
2695,-6.645402022022888
1929,18.00005089571781
3063,1833197.7449075757
3064,0.0
2,2, 1, 2, 0, 9, 0.00,60.00,Holiday
2695,-6.13108926621647
1929,18.00000485454915
3063,1883064.4557191265
3064,0.0
2,2, 1, 2, 0,10, 0.00,60.00,Holiday
2695,-6.131295854738663
1929,18.00000052998584
3063,1937107.2865843713
3064,0.0
2,2, 1, 2, 0,11, 0.00,60.00,Holiday
2695,-6.129927822911125
1929,18.000000472046037
3063,1960992.3710845202
3064,0.0
2,2, 1, 2, 0,12, 0.00,60.00,Holiday
2695,-6.128935507382123
1929,18.000000430355557
3063,1979672.5806011223
3064,0.0
2,2, 1, 2, 0,13, 0.00,60.00,Holiday
2695,-6.128033801947635
1929,18.00000039733718
3063,1996600.1312065183
3064,0.0
2,2, 1, 2, 0,14, 0.00,60.00,Holiday
2695,-6.126918979870997
1929,18.000000360551657
3063,2009774.2149772016
3064,0.0
2,2, 1, 2, 0,15, 0.00,60.00,Holiday
2695,-6.12463776945365
1929,18.000000313199455
3063,2025121.046159608
3064,0.0
2,2, 1, 2, 0,16, 0.00,60.00,Holiday
2695,-6.120010867837053
1929,18.000000269551128
3063,2028180.1016853392
3064,0.0
2,2, 1, 2, 0,17, 0.00,60.00,Holiday
2695,-6.113547713141856
1929,18.0000002561123
3063,1981250.2018216593
3064,0.0
2,2, 1, 2, 0,18, 0.00,60.00,Holiday
2695,-6.108200418684146
1929,18.000000271452728
3063,1905465.643683326
3064,0.0
2,2, 1, 2, 0,19, 0.00,60.00,Holiday
2695,-6.617124905530268
1929,18.00002226257129
3063,1837488.5531843878
3064,0.0
2,2, 1, 2, 0,20, 0.00,60.00,Holiday
2695,-6.615240099410038
1929,18.000091517698647
3063,1781490.3709880454
3064,0.0
2,2, 1, 2, 0,21, 0.00,60.00,Holiday
2695,-6.614884776531646
1929,18.00008946658566
3063,1751795.0996622304
3064,0.0
2,2, 1, 2, 0,22, 0.00,60.00,Holiday
2695,-6.614408418748115
1929,18.00002050119455
3063,1749073.929412739
3064,0.0
2,2, 1, 2, 0,23, 0.00,60.00,Holiday
2695,-6.6128876364645639
1929,18.000000373121126
3063,1743016.7040233804
3064,0.0
2,2, 1, 2, 0,24, 0.00,60.00,Holiday
2695,-6.611954982551507
1929,18.00004192047696
3063,1718810.833164185
3064,0.0
2,3, 1, 3, 0, 1, 0.00,60.00,Holiday
2695,-6.613791015390535
1929,18.00011217470242
3063,1701469.092688877
3064,0.0
2,3, 1, 3, 0, 2, 0.00,60.00,Holiday
2695,-6.618000376951109
1929,18.000203519555034
3063,1681515.4018832758
3064,0.0
2,3, 1, 3, 0, 3, 0.00,60.00,Holiday
2695,-6.625683443646024
1929,18.00024424324486
3063,1634948.5151943519
3064,0.0
2,3, 1, 3, 0, 4, 0.00,60.00,Holiday
2695,-6.638936237825564
1929,18.000158995110657
3063,1674694.7313384447
3064,0.0
2,3, 1, 3, 0, 5, 0.00,60.00,Holiday
2695,-6.648594374178514
1929,18.000082741837568
3063,1750478.1959502695
3064,0.0
2,3, 1, 3, 0, 6, 0.00,60.00,Holiday
2695,-6.6542602148563969
1929,18.000040829635524
3063,1801842.904303549
3064,0.0
2,3, 1, 3, 0, 7, 0.00,60.00,Holiday
2695,-6.55971025743719
1929,18.000007568032375
3063,1870689.7112974385
3064,0.0
2,3, 1, 3, 0, 8, 0.00,60.00,Holiday
2695,-6.560208770800576
1929,18.000003601655938
3063,1895155.416988675
3064,0.0
2,3, 1, 3, 0, 9, 0.00,60.00,Holiday
2695,-6.060251788860339
1929,18.000000703365669
3063,1926751.876726179
3064,0.0
2,3, 1, 3, 0,10, 0.00,60.00,Holiday
2695,-6.061029109684401
1929,18.000000659373926
3063,1960630.1871666834
3064,0.0
2,3, 1, 3, 0,11, 0.00,60.00,Holiday
2695,-6.06200287067002
1929,18.000000626174523
3063,1995680.829638837
3064,0.0
2,3, 1, 3, 0,12, 0.00,60.00,Holiday
2695,-6.062928418299883
1929,18.000000595505865
3063,2027705.7889956092
3064,0.0
2,3, 1, 3, 0,13, 0.00,60.00,Holiday
2695,-6.0641107133687239
1929,18.00000057416504
3063,2058152.0211972907
3064,0.0
2,3, 1, 3, 0,14, 0.00,60.00,Holiday
2695,-6.065320848575772
1929,18.000000558648567
3063,2088644.230848454
3064,0.0
2,3, 1, 3, 0,15, 0.00,60.00,Holiday
2695,-6.066373334046065
1929,18.000000549872174
3063,2118593.0195819365
3064,0.0
2,3, 1, 3, 0,16, 0.00,60.00,Holiday
2695,-6.067033222732388
1929,18.000000545472177
3063,2145157.1908718326
3064,0.0
2,3, 1, 3, 0,17, 0.00,60.00,Holiday
2695,-6.067190356153335
1929,18.000000540161659
3063,2173529.8678263125
3064,0.0
2,3, 1, 3, 0,18, 0.00,60.00,Holiday
2695,-6.066495182047099
1929,18.000000540844579
3063,2194255.605889161
3064,0.0
2,3, 1, 3, 0,19, 0.00,60.00,Holiday
2695,-6.568401852792433
1929,18.000000538968256
3063,2211076.7542758865
3064,0.0
2,3, 1, 3, 0,20, 0.00,60.00,Holiday
2695,-6.56631733889249
1929,18.0000005449003
3063,2223953.3981405247
3064,0.0
2,3, 1, 3, 0,21, 0.00,60.00,Holiday
2695,-6.563872848303419
1929,18.000000553755048
3063,2230124.809300225
3064,0.0
2,3, 1, 3, 0,22, 0.00,60.00,Holiday
2695,-6.56161624213087
1929,18.00000056449547
3063,2230940.958236575
3064,0.0
2,3, 1, 3, 0,23, 0.00,60.00,Holiday
2695,-6.55999107053156
1929,18.000000580831065
3063,2232886.19021233
3064,0.0
2,3, 1, 3, 0,24, 0.00,60.00,Holiday
2695,-6.559045023690274
1929,18.00000059764646
3063,2230633.632929398
3064,0.0
2,4, 1, 4, 0, 1, 0.00,60.00,Wednesday
2695,-6.559096458776948
1929,18.000000615033917
3063,2236939.2811789016
3064,0.0
2,4, 1, 4, 0, 2, 0.00,60.00,Wednesday
2695,-6.559418081978301
1929,18.000001918528868
3063,2241234.7171964875
3064,0.0
2,4, 1, 4, 0, 3, 0.00,60.00,Wednesday
2695,-6.560261420238567
1929,18.00000138030708
3063,2250883.8171357016
3064,0.0
2,4, 1, 4, 0, 4, 0.00,60.00,Wednesday
2695,-6.560960608101804
1929,18.000000670603609
3063,2264211.8771734789
3064,0.0
2,4, 1, 4, 0, 5, 0.00,60.00,Wednesday
2695,-6.5612891156201889
1929,18.00000068144725
3063,2280141.737168562
3064,0.0
2,4, 1, 4, 0, 6, 0.00,60.00,Wednesday
2695,-6.561058889381779
1929,18.000000694940537
3063,2290741.4647409387
3064,0.0
2,4, 1, 4, 0, 7, 0.00,60.00,Wednesday
2695,-6.690437706944301
1929,18.000000706368515
3063,2296078.917608445
3064,0.0
2,4, 1, 4, 0, 8, 0.00,60.00,Wednesday
2695,-6.688886295169702
1929,18.000025324098027
3063,2292322.475457011
3064,0.0
2,4, 1, 4, 0, 9, 0.00,60.00,Wednesday
2695,-6.152299152369843
1929,18.000205577175028
3063,2201368.9288849926
3064,0.0
2,4, 1, 4, 0,10, 0.00,60.00,Wednesday
2695,-6.134801315557529
1929,18.00042015541561
3063,2046659.8691405238
3064,0.0
2,4, 1, 4, 0,11, 0.00,60.00,Wednesday
2695,-6.128798537095741
1929,18.00051030566411
3063,1959124.5357164739
3064,0.0
2,4, 1, 4, 0,12, 0.00,60.00,Wednesday
2695,-6.129739797052232
1929,18.000489566377334
3063,1899235.6694198489
3064,0.0
2,4, 1, 4, 0,13, 0.00,60.00,Wednesday
2695,-6.131551846822629
1929,18.000475481479979
3063,1864148.2570775324
3064,0.0
2,4, 1, 4, 0,14, 0.00,60.00,Wednesday
2695,-6.13215530505656
1929,18.00041139416658
3063,1778973.1907817678
3064,0.0
2,4, 1, 4, 0,15, 0.00,60.00,Wednesday
2695,-6.126711771875205
1929,18.000292809474045
3063,1573622.3715063602
3064,0.0
2,4, 1, 4, 0,16, 0.00,60.00,Wednesday
2695,-6.116202254206885
1929,18.000224750329055
3063,1406040.0343382976
3064,0.0
2,4, 1, 4, 0,17, 0.00,60.00,Wednesday
2695,-6.105509334537332
1929,18.000223420530646
3063,1318988.8819856174
3064,0.0
2,4, 1, 4, 0,18, 0.00,60.00,Wednesday
2695,-6.09960761020418
1929,18.00024765800407
3063,1321848.8912798686
3064,0.0
2,4, 1, 4, 0,19, 0.00,60.00,Wednesday
2695,-6.619300638382121
1929,18.000403337516628
3063,1793467.6882152546
3064,0.0
2,4, 1, 4, 0,20, 0.00,60.00,Wednesday
2695,-6.631456947569986
1929,18.000275238816529
3063,1854528.210680849
3064,0.0
2,4, 1, 4, 0,21, 0.00,60.00,Wednesday
2695,-6.640184829898545
1929,18.000255404766013
3063,1976226.4969039988
3064,0.0
2,4, 1, 4, 0,22, 0.00,60.00,Wednesday
2695,-6.646950275170034
1929,18.00019250714084
3063,1992144.585644664
3064,0.0
2,4, 1, 4, 0,23, 0.00,60.00,Wednesday
2695,-6.652033363402796
1929,18.00014775929883
3063,1999983.4580642058
3064,0.0
2,4, 1, 4, 0,24, 0.00,60.00,Wednesday
2695,-6.65635625288656
1929,18.000131262097935
3063,2002754.9961382577
3064,0.0
2,5, 1, 5, 0, 1, 0.00,60.00,Thursday
2695,-6.661038193111577
1929,18.00011856317365
3063,2009213.3587321258
3064,0.0
2,5, 1, 5, 0, 2, 0.00,60.00,Thursday
2695,-6.665359251243111
1929,18.00011263865173
3063,2016770.2919158564
3064,0.0
2,5, 1, 5, 0, 3, 0.00,60.00,Thursday
2695,-6.669382041311832
1929,18.000127115702929
3063,2020944.4901793455
3064,0.0
2,5, 1, 5, 0, 4, 0.00,60.00,Thursday
2695,-6.674001498341906
1929,18.000158496192286
3063,2022559.517660172
3064,0.0
2,5, 1, 5, 0, 5, 0.00,60.00,Thursday
2695,-6.679366976291672
1929,18.000163743225526
3063,2033711.9509820333
3064,0.0
2,5, 1, 5, 0, 6, 0.00,60.00,Thursday
2695,-6.684662447568855
1929,18.00015090292926
3063,2049161.3978295543
3064,0.0
2,5, 1, 5, 0, 7, 0.00,60.00,Thursday
2695,-6.701441427718561
1929,18.000163115895775
3063,2055468.0639035216
3064,0.0
2,5, 1, 5, 0, 8, 0.00,60.00,Thursday
2695,-6.705535904772195
1929,18.000155617963086
3063,2067903.6571440655
3064,0.0
2,5, 1, 5, 0, 9, 0.00,60.00,Thursday
2695,-6.170520546643712
1929,18.000226047740946
3063,2001194.9331221092
3064,0.0
2,5, 1, 5, 0,10, 0.00,60.00,Thursday
2695,-6.1531158302601709
1929,18.000365739183406
3063,1859651.7216120905
3064,0.0
2,5, 1, 5, 0,11, 0.00,60.00,Thursday
2695,-6.143439641020177
1929,18.000422696433679
3063,1767305.5602019518
3064,0.0
2,5, 1, 5, 0,12, 0.00,60.00,Thursday
2695,-6.139588224608068
1929,18.000415919625906
3063,1705029.370445584
3064,0.0
2,5, 1, 5, 0,13, 0.00,60.00,Thursday
2695,-6.137639742918611
1929,18.000390213759905
3063,1685232.5236030652
3064,0.0
2,5, 1, 5, 0,14, 0.00,60.00,Thursday
2695,-6.133651796964759
1929,18.00036422905102
3063,1622232.9078684927
3064,0.0
2,5, 1, 5, 0,15, 0.00,60.00,Thursday
2695,-6.128045525663667
1929,18.000320353431588
3063,1486333.9497977677
3064,0.0
2,5, 1, 5, 0,16, 0.00,60.00,Thursday
2695,-6.122830476297636
1929,18.000295188309364
3063,1392808.6831910203
3064,0.0
2,5, 1, 5, 0,17, 0.00,60.00,Thursday
2695,-6.118180530491807
1929,18.000262618141027
3063,1299677.3832616865
3064,0.0
2,5, 1, 5, 0,18, 0.00,60.00,Thursday
2695,-6.113727548045151
1929,18.00023725884672
3063,1214742.0294204369
3064,0.0
2,5, 1, 5, 0,19, 0.00,60.00,Thursday
2695,-6.636132837461542
1929,18.0003759646148
3063,1615054.713424257
3064,0.0
2,5, 1, 5, 0,20, 0.00,60.00,Thursday
2695,-6.648766755738571
1929,18.000259026721019
3063,1652866.7621966017
3064,0.0
2,5, 1, 5, 0,21, 0.00,60.00,Thursday
2695,-6.658096253424919
1929,18.000267973669634
3063,1822787.9706683802
3064,0.0
2,5, 1, 5, 0,22, 0.00,60.00,Thursday
2695,-6.665688853828931
1929,18.000234721238145
3063,1838233.6689586759
3064,0.0
2,5, 1, 5, 0,23, 0.00,60.00,Thursday
2695,-6.672213158183967
1929,18.000186633032859
3063,1854993.456417274
3064,0.0
2,5, 1, 5, 0,24, 0.00,60.00,Thursday
2695,-6.677282198253422
1929,18.000092511648167
3063,1884759.0361713928
3064,0.0
2,6, 1, 6, 0, 1, 0.00,60.00,Friday
2695,-6.6796944647837439
1929,18.000037940550283
3063,1901300.2023905128
3064,0.0
2,6, 1, 6, 0, 2, 0.00,60.00,Friday
2695,-6.681232291038669
1929,18.00000468549133
3063,1919589.611925202
3064,0.0
2,6, 1, 6, 0, 3, 0.00,60.00,Friday
2695,-6.6817162713077009
1929,18.000000503812776
3063,1939800.8152805158
3064,0.0
2,6, 1, 6, 0, 4, 0.00,60.00,Friday
2695,-6.6812463815544309
1929,18.000000521497836
3063,1955805.7439580044
3064,0.0
2,6, 1, 6, 0, 5, 0.00,60.00,Friday
2695,-6.680264912575296
1929,18.000000532972117
3063,1968788.874949343
3064,0.0
2,6, 1, 6, 0, 6, 0.00,60.00,Friday
2695,-6.679161462845915
1929,18.000000539527848
3063,1981468.345825143
3064,0.0
2,6, 1, 6, 0, 7, 0.00,60.00,Friday
2695,-6.67541623656043
1929,18.00000054618241
3063,1982966.1623101717
3064,0.0
2,6, 1, 6, 0, 8, 0.00,60.00,Friday
2695,-6.674027538147727
1929,18.000019273157855
3063,1977667.299103429
3064,0.0
2,6, 1, 6, 0, 9, 0.00,60.00,Friday
2695,-6.140517481789053
1929,18.000166863157234
3063,1857669.3661488519
3064,0.0
2,6, 1, 6, 0,10, 0.00,60.00,Friday
2695,-6.121259445734162
1929,18.00029690544478
3063,1578968.5914996665
3064,0.0
2,6, 1, 6, 0,11, 0.00,60.00,Friday
2695,-6.11233928027336
1929,18.000306146279983
3063,1388446.234853149
3064,0.0
2,6, 1, 6, 0,12, 0.00,60.00,Friday
2695,-6.109729199825782
1929,18.000239002795838
3063,1223812.3177957938
3064,0.0
2,6, 1, 6, 0,13, 0.00,60.00,Friday
2695,-6.107869543441654
1929,18.000209403999678
3063,1152006.8841844013
3064,0.0
2,6, 1, 6, 0,14, 0.00,60.00,Friday
2695,-6.10430072405854
1929,18.000181036148946
3063,967373.1158897986
3064,0.0
2,6, 1, 6, 0,15, 0.00,60.00,Friday
2695,-6.0741985863571739
1929,18.16188961999193
3063,538920.6843485471
3064,0.0
2,6, 1, 6, 0,16, 0.00,60.00,Friday
2695,-6.0084035968677409
1929,18.428680684403024
3063,244912.4497109314
3064,0.0
2,6, 1, 6, 0,17, 0.00,60.00,Friday
2695,-5.955213463808292
1929,18.572582322972349
3063,96051.39405616159
3064,0.0
2,6, 1, 6, 0,18, 0.00,60.00,Friday
2695,-5.933585582278241
1929,18.579529213708687
3063,89647.76311438123
3064,0.0
2,6, 1, 6, 0,19, 0.00,60.00,Friday
2695,-6.501359896642467
1929,18.025388704243
3063,1030563.8841701134
3064,0.0
2,6, 1, 6, 0,20, 0.00,60.00,Friday
2695,-6.533986014373311
1929,18.000147766221138
3063,1039876.538336734
3064,0.0
2,6, 1, 6, 0,21, 0.00,60.00,Friday
2695,-6.5385084948592679
1929,18.000231367742598
3063,1323234.1260868766
3064,0.0
2,6, 1, 6, 0,22, 0.00,60.00,Friday
2695,-6.540307706899978
1929,18.000198312310205
3063,1298771.6984217915
3064,0.0
2,6, 1, 6, 0,23, 0.00,60.00,Friday
2695,-6.542264345330035
1929,18.000188888079369
3063,1275990.337081846
3064,0.0
2,6, 1, 6, 0,24, 0.00,60.00,Friday
2695,-6.545236971235634
1929,18.000190003681
3063,1261064.8259275023
3064,0.0
2,7, 1, 7, 0, 1, 0.00,60.00,Saturday
2695,-6.549388380533643
1929,18.000182291450498
3063,1258619.4128952549
3064,0.0
2,7, 1, 7, 0, 2, 0.00,60.00,Saturday
2695,-6.5542762206208569
1929,18.000187104602575
3063,1260078.293892848
3064,0.0
2,7, 1, 7, 0, 3, 0.00,60.00,Saturday
2695,-6.560143971018852
1929,18.000204460903455
3063,1264298.6462630758
3064,0.0
2,7, 1, 7, 0, 4, 0.00,60.00,Saturday
2695,-6.567330749713247
1929,18.00022789671988
3063,1271460.342384901
3064,0.0
2,7, 1, 7, 0, 5, 0.00,60.00,Saturday
2695,-6.57608737865016
1929,18.000257860420395
3063,1258698.9698291349
3064,0.0
2,7, 1, 7, 0, 6, 0.00,60.00,Saturday
2695,-6.592136499910324
1929,18.000230578082446
3063,1212684.7846928435
3064,0.0
2,7, 1, 7, 0, 7, 0.00,60.00,Saturday
2695,-6.4048919773630639
1929,18.000159510477475
3063,1291799.9395699374
3064,0.0
2,7, 1, 7, 0, 8, 0.00,60.00,Saturday
2695,-6.419548205244582
1929,18.00009859544348
3063,1371123.7391145454
3064,0.0
2,7, 1, 7, 0, 9, 0.00,60.00,Saturday
2695,-5.953460635157774
1929,18.000060842304096
3063,1434398.714968432
3064,0.0
2,7, 1, 7, 0,10, 0.00,60.00,Saturday
2695,-5.95997096827302
1929,18.000046600673867
3063,1484929.6547078477
3064,0.0
2,7, 1, 7, 0,11, 0.00,60.00,Saturday
2695,-5.9655846733016288
1929,18.000034345284566
3063,1540784.36190756
3064,0.0
2,7, 1, 7, 0,12, 0.00,60.00,Saturday
2695,-5.9699732726246819
1929,18.00002396522656
3063,1592133.807411903
3064,0.0
2,7, 1, 7, 0,13, 0.00,60.00,Saturday
2695,-5.972472781787907
1929,18.00000190196231
3063,1639516.0825158917
3064,0.0
2,7, 1, 7, 0,14, 0.00,60.00,Saturday
2695,-5.972136877852539
1929,18.00000021498262
3063,1678839.44645242
3064,0.0
2,7, 1, 7, 0,15, 0.00,60.00,Saturday
2695,-5.968090211885116
1929,18.000000135904924
3063,1705279.9132124165
3064,0.0
2,7, 1, 7, 0,16, 0.00,60.00,Saturday
2695,-5.959441033993095
1929,18.000000088073106
3063,1697102.9927285813
3064,0.0
2,7, 1, 7, 0,17, 0.00,60.00,Saturday
2695,-5.947689667841697
1929,18.000000072268415
3063,1619954.1047145529
3064,0.0
2,7, 1, 7, 0,18, 0.00,60.00,Saturday
2695,-5.936307992100442
1929,18.000000068727798
3063,1519967.7502937017
3064,0.0
2,7, 1, 7, 0,19, 0.00,60.00,Saturday
2695,-6.396530466179855
1929,18.000000067085318
3063,1428309.0588682076
3064,0.0
2,7, 1, 7, 0,20, 0.00,60.00,Saturday
2695,-6.38488596338053
1929,18.000000066689475
3063,1350140.9056154823
3064,0.0
2,7, 1, 7, 0,21, 0.00,60.00,Saturday
2695,-6.374750953522114
1929,18.000000067743
3063,1285449.4998834779
3064,0.0
2,7, 1, 7, 0,22, 0.00,60.00,Saturday
2695,-6.366695482838836
1929,18.000000070273456
3063,1235761.6927066346
3064,0.0
2,7, 1, 7, 0,23, 0.00,60.00,Saturday
2695,-6.360859028230123
1929,18.00000007372873
3063,1199912.9160502533
3064,0.0
2,7, 1, 7, 0,24, 0.00,60.00,Saturday
2695,-6.357264665900547
1929,18.0000013281592
3063,1176593.0898113314
3064,0.0
2,8, 1, 8, 0, 1, 0.00,60.00,Sunday
2695,-6.355626817202361
1929,18.000002832809199
3063,1171846.748112253
3064,0.0
2,8, 1, 8, 0, 2, 0.00,60.00,Sunday
2695,-6.355165279154378
1929,18.000004295568798
3063,1177693.3631078795
3064,0.0
2,8, 1, 8, 0, 3, 0.00,60.00,Sunday
2695,-6.35569669189357
1929,18.00001044800427
3063,1189056.8357600778
3064,0.0
2,8, 1, 8, 0, 4, 0.00,60.00,Sunday
2695,-6.3571594251234
1929,18.00001675631331
3063,1206740.8360358473
3064,0.0
2,8, 1, 8, 0, 5, 0.00,60.00,Sunday
2695,-6.359390756408889
1929,18.00001621846623
3063,1232335.7397837719
3064,0.0
2,8, 1, 8, 0, 6, 0.00,60.00,Sunday
2695,-6.36213272111475
1929,18.00002295313774
3063,1258357.8020375185
3064,0.0
2,8, 1, 8, 0, 7, 0.00,60.00,Sunday
2695,-6.574523318994648
1929,18.000033610239354
3063,1286031.74528351
3064,0.0
2,8, 1, 8, 0, 8, 0.00,60.00,Sunday
2695,-6.578614415008648
1929,18.000040493414116
3063,1317642.6172853048
3064,0.0
2,8, 1, 8, 0, 9, 0.00,60.00,Sunday
2695,-6.079053930581093
1929,18.000039842837084
3063,1354192.2871994333
3064,0.0
2,8, 1, 8, 0,10, 0.00,60.00,Sunday
2695,-6.082805841825684
1929,18.000032790460066
3063,1393930.206557628
3064,0.0
2,8, 1, 8, 0,11, 0.00,60.00,Sunday
2695,-6.086427058901851
1929,18.000011275749598
3063,1438627.8557953465
3064,0.0
2,8, 1, 8, 0,12, 0.00,60.00,Sunday
2695,-6.08957462128792
1929,18.00000014505541
3063,1476927.1032625074
3064,0.0
2,8, 1, 8, 0,13, 0.00,60.00,Sunday
2695,-6.092344873983308
1929,18.000003815169668
3063,1504776.7488424397
3064,0.0
2,8, 1, 8, 0,14, 0.00,60.00,Sunday
2695,-6.094547188837816
1929,18.00000092376626
3063,1527563.3003871649
3064,0.0
2,8, 1, 8, 0,15, 0.00,60.00,Sunday
2695,-6.095595427038398
1929,18.000000106267895
3063,1539926.2208224666
3064,0.0
2,8, 1, 8, 0,16, 0.00,60.00,Sunday
2695,-6.0949647549522949
1929,18.00000009558188
3063,1536017.8391136737
3064,0.0
2,8, 1, 8, 0,17, 0.00,60.00,Sunday
2695,-6.0924607746527219
1929,18.000000087400914
3063,1511900.1812621356
3064,0.0
2,8, 1, 8, 0,18, 0.00,60.00,Sunday
2695,-6.08845465562199
1929,18.000000083515194
3063,1473531.9456937186
3064,0.0
2,8, 1, 8, 0,19, 0.00,60.00,Sunday
2695,-6.588824653901249
1929,18.000000084612024
3063,1419965.3113577145
3064,0.0
2,8, 1, 8, 0,20, 0.00,60.00,Sunday
2695,-6.58294255742156
1929,18.0000000871531
3063,1366884.2723960654
3064,0.0
2,8, 1, 8, 0,21, 0.00,60.00,Sunday
2695,-6.578044953879665
1929,18.000000088967157
3063,1333032.6655341753
3064,0.0
2,8, 1, 8, 0,22, 0.00,60.00,Sunday
2695,-6.573958552025421
1929,18.000000088643217
3063,1320958.1428705506
3064,0.0
2,8, 1, 8, 0,23, 0.00,60.00,Sunday
2695,-6.57037309296847
1929,18.000000091163839
3063,1308994.2606625627
3064,0.0
2,8, 1, 8, 0,24, 0.00,60.00,Sunday
2695,-6.5680808604671629
1929,18.000000102087989
3063,1295297.0244144775
3064,0.0
2,9, 1, 9, 0, 1, 0.00,60.00,Monday
2695,-6.56782710522965
1929,18.000002485009689
3063,1285786.1716920436
3064,0.0
2,9, 1, 9, 0, 2, 0.00,60.00,Monday
2695,-6.56916514784556
1929,18.000019410637504
3063,1289721.4405146109
3064,0.0
2,9, 1, 9, 0, 3, 0.00,60.00,Monday
2695,-6.571319088041331
1929,18.000026146605703
3063,1307388.5905704897
3064,0.0
2,9, 1, 9, 0, 4, 0.00,60.00,Monday
2695,-6.5740553655543769
1929,18.000019660016404
3063,1334259.2785807104
3064,0.0
2,9, 1, 9, 0, 5, 0.00,60.00,Monday
2695,-6.577002410838902
1929,18.000008926841656
3063,1365490.082676914