Program Version,EnergyPlus, Version 8.7.0-78a111df4a, YMD=2019.05.28 05:48
1,5,Environment Title[],Latitude[deg],Longitude[deg],Time Zone[],Elevation[m]
2,6,Day of Simulation[],Month[],Day of Month[],DST Indicator[1=yes 0=no],Hour[],StartMinute[],EndMinute[],DayType
3,3,Cumulative Day of Simulation[],Month[],Day of Month[],DST Indicator[1=yes 0=no],DayType  ! When Daily Report Variables Requested
4,2,Cumulative Days of Simulation[],Month[]  ! When Monthly Report Variables Requested
5,1,Cumulative Days of Simulation[] ! When Run Period Report Variables Requested
4826,1,BEDROOM2.2,Zone Ideal Loads Zone Total Heating Energy [J] !Hourly
4827,1,BEDROOM2.2,Zone Ideal Loads Zone Total Cooling Energy [J] !Hourly
4973,1,BEDROOM2.2,Zone Thermal Comfort Fanger Model PMV [] !Hourly
End of Data Dictionary
1,RUNPERIOD,  29.58, 106.47,   8.00, 259.10
2,1, 1, 1, 0, 1, 0.00,60.00,Thursday
4973,-1.0713488121113626
4826,2336860.036109929
4827,6.609287662616804e-8
2,1, 1, 1, 0, 2, 0.00,60.00,Thursday
4973,-1.0636866147938325
4826,2345383.4373998569
4827,1.1295924196019769e-7
2,1, 1, 1, 0, 3, 0.00,60.00,Thursday
4973,-1.0557681344329844
4826,2281461.1376990645
4827,7.898961484897882e-8
2,1, 1, 1, 0, 4, 0.00,60.00,Thursday
4973,-1.0491545152159177
4826,2249514.864773515
4827,5.0033577281283217e-8
2,1, 1, 1, 0, 5, 0.00,60.00,Thursday
4973,-1.0455396331091776
4826,2265290.4249569626
4827,1.1541487765498459e-7
2,1, 1, 1, 0, 6, 0.00,60.00,Thursday
4973,-1.0450227028788036
4826,2286196.2766556225
4827,1.4334773368318566e-7
2,1, 1, 1, 0, 7, 0.00,60.00,Thursday
4973,-1.0465430600442074
4826,2301821.6479084815
4827,4.757794158649631e-8
2,1, 1, 1, 0, 8, 0.00,60.00,Thursday
4973,-1.662621075678974
4826,0.0
4827,0.0
2,1, 1, 1, 0, 9, 0.00,60.00,Thursday
4973,-2.049135600969601
4826,0.0
4827,0.0
2,1, 1, 1, 0,10, 0.00,60.00,Thursday
4973,-2.086654198972826
4826,0.0
4827,0.0
2,1, 1, 1, 0,11, 0.00,60.00,Thursday
4973,-2.0933697894408227
4826,0.0
4827,0.0
2,1, 1, 1, 0,12, 0.00,60.00,Thursday
4973,-2.0894205055127275
4826,0.0
4827,0.0
2,1, 1, 1, 0,13, 0.00,60.00,Thursday
4973,-2.072876108315532
4826,0.0
4827,0.0
2,1, 1, 1, 0,14, 0.00,60.00,Thursday
4973,-2.0384176188194216
4826,0.0
4827,0.0
2,1, 1, 1, 0,15, 0.00,60.00,Thursday
4973,-1.9941025553817522
4826,0.0
4827,0.0
2,1, 1, 1, 0,16, 0.00,60.00,Thursday
4973,-1.936146670742863
4826,0.0
4827,0.0
2,1, 1, 1, 0,17, 0.00,60.00,Thursday
4973,-1.868889837021983
4826,0.0
4827,0.0
2,1, 1, 1, 0,18, 0.00,60.00,Thursday
4973,-1.8095397643021787
4826,0.0
4827,0.0
2,1, 1, 1, 0,19, 0.00,60.00,Thursday
4973,-1.76241189837613
4826,0.0
4827,0.0
2,1, 1, 1, 0,20, 0.00,60.00,Thursday
4973,-1.7352149786663128
4826,0.0
4827,0.0
2,1, 1, 1, 0,21, 0.00,60.00,Thursday
4973,-1.7751585007490889
4826,0.0
4827,0.0
2,1, 1, 1, 0,22, 0.00,60.00,Thursday
4973,-1.262437014954557
4826,2958028.163629953
4827,1.0613462109176908e-7
2,1, 1, 1, 0,23, 0.00,60.00,Thursday
4973,-1.0816486927955307
4826,2224902.8416842229
4827,1.2718146535917186e-7
2,1, 1, 1, 0,24, 0.00,60.00,Thursday
4973,-1.077172746387667
4826,2122400.3956821348
4827,2.4863311409717427e-8
2,2, 1, 2, 0, 1, 0.00,60.00,Friday
4973,-1.0743939633259905
4826,2312876.1292281986
4827,7.680713761973576e-8
2,2, 1, 2, 0, 2, 0.00,60.00,Friday
4973,-1.0721683522774377
4826,2308845.337186296
4827,7.939888746477664e-8
2,2, 1, 2, 0, 3, 0.00,60.00,Friday
4973,-1.070740863717158
4826,2310097.8986873307
4827,6.507434591185302e-8
2,2, 1, 2, 0, 4, 0.00,60.00,Friday
4973,-1.067301020116747
4826,2303868.027279399
4827,8.819824870442972e-8
2,2, 1, 2, 0, 5, 0.00,60.00,Friday
4973,-1.0630077868818007
4826,2290518.25545774
4827,6.415348252630793e-8
2,2, 1, 2, 0, 6, 0.00,60.00,Friday
4973,-1.0586145399201404
4826,2280398.731091945
4827,6.036771083017811e-8
2,2, 1, 2, 0, 7, 0.00,60.00,Friday
4973,-1.054361965045393
4826,2266432.1671866469
4827,3.6834535421803596e-8
2,2, 1, 2, 0, 8, 0.00,60.00,Friday
4973,-1.6319308679602456
4826,0.0
4827,0.0
2,2, 1, 2, 0, 9, 0.00,60.00,Friday
4973,-1.9719776886147456
4826,0.0
4827,0.0
2,2, 1, 2, 0,10, 0.00,60.00,Friday
4973,-1.9524821888923272
4826,0.0
4827,0.0
2,2, 1, 2, 0,11, 0.00,60.00,Friday
4973,-1.9355023090784327
4826,0.0
4827,0.0
2,2, 1, 2, 0,12, 0.00,60.00,Friday
4973,-1.9234813324660579
4826,0.0
4827,0.0
2,2, 1, 2, 0,13, 0.00,60.00,Friday
4973,-1.9099850737681515
4826,0.0
4827,0.0
2,2, 1, 2, 0,14, 0.00,60.00,Friday
4973,-1.8957338512571656
4826,0.0
4827,0.0
2,2, 1, 2, 0,15, 0.00,60.00,Friday
4973,-1.8702163138746422
4826,0.0
4827,0.0
2,2, 1, 2, 0,16, 0.00,60.00,Friday
4973,-1.8361735289060413
4826,0.0
4827,0.0
2,2, 1, 2, 0,17, 0.00,60.00,Friday
4973,-1.8149180827804335
4826,0.0
4827,0.0
2,2, 1, 2, 0,18, 0.00,60.00,Friday
4973,-1.8362575992048287
4826,0.0
4827,0.0
2,2, 1, 2, 0,19, 0.00,60.00,Friday
4973,-1.877389860109303
4826,0.0
4827,0.0
2,2, 1, 2, 0,20, 0.00,60.00,Friday
4973,-1.903231556324447
4826,0.0
4827,0.0
2,2, 1, 2, 0,21, 0.00,60.00,Friday
4973,-1.9301226496981144
4826,0.0
4827,0.0
2,2, 1, 2, 0,22, 0.00,60.00,Friday
4973,-1.3101296097712663
4826,3240527.2103830825
4827,3.2721345633035528e-8
2,2, 1, 2, 0,23, 0.00,60.00,Friday
4973,-1.0897530741107278
4826,2257643.9428806195
4827,6.998561730142683e-8
2,2, 1, 2, 0,24, 0.00,60.00,Friday
4973,-1.0721229610508505
4826,2140461.7918854106
4827,5.965148375253193e-8
2,3, 1, 3, 0, 1, 0.00,60.00,Saturday
4973,-1.0644831015069023
4826,2342441.121016561
4827,9.348499671349683e-8
2,3, 1, 3, 0, 2, 0.00,60.00,Saturday
4973,-1.061637849870175
4826,2373394.910276247
4827,4.440607881406322e-8
2,3, 1, 3, 0, 3, 0.00,60.00,Saturday
4973,-1.0634468961590167
4826,2383451.3069322167
4827,1.0896883395616897e-7
2,3, 1, 3, 0, 4, 0.00,60.00,Saturday
4973,-1.064905224817672
4826,2378952.405599359
4827,8.697043085703626e-8
2,3, 1, 3, 0, 5, 0.00,60.00,Saturday
4973,-1.064786323597753
4826,2364704.692839388
4827,7.725020623183809e-8
2,3, 1, 3, 0, 6, 0.00,60.00,Saturday
4973,-1.0630154169641495
4826,2335140.841281131
4827,6.476739145000465e-8
2,3, 1, 3, 0, 7, 0.00,60.00,Saturday
4973,-1.0594352926081428
4826,2287658.7463768336
4827,3.2946445571724328e-8
2,3, 1, 3, 0, 8, 0.00,60.00,Saturday
4973,-1.0539195257854353
4826,2235693.395047088
4827,3.944023774238303e-8
2,3, 1, 3, 0, 9, 0.00,60.00,Saturday
4973,-1.049190796031274
4826,2236225.0135226196
4827,8.707274901098572e-8
2,3, 1, 3, 0,10, 0.00,60.00,Saturday
4973,-1.0443028676908027
4826,2183272.7195435145
4827,5.913989298278466e-8
2,3, 1, 3, 0,11, 0.00,60.00,Saturday
4973,-1.0402392672833674
4826,2190628.969688494
4827,5.4637894209008667e-8
2,3, 1, 3, 0,12, 0.00,60.00,Saturday
4973,-1.0368932325808367
4826,2145221.7541785335
4827,0.0
2,3, 1, 3, 0,13, 0.00,60.00,Saturday
4973,-1.0330408010348098
4826,2104613.0830731887
4827,5.985612006043084e-8
2,3, 1, 3, 0,14, 0.00,60.00,Saturday
4973,-1.029010061730595
4826,2067737.1002004038
4827,6.231175575521775e-8
2,3, 1, 3, 0,15, 0.00,60.00,Saturday
4973,-1.024115640116522
4826,1998421.6079412685
4827,8.185452315956354e-10
2,3, 1, 3, 0,16, 0.00,60.00,Saturday
4973,-1.0177839368392139
4826,1980182.4509614323
4827,7.489688869100064e-8
2,3, 1, 3, 0,17, 0.00,60.00,Saturday
4973,-1.0128729747709138
4826,2009245.0773794589
4827,1.7394086171407253e-9
2,3, 1, 3, 0,18, 0.00,60.00,Saturday
4973,-1.0083997886739323
4826,1990920.6941471876
4827,5.6274984672199938e-9
2,3, 1, 3, 0,19, 0.00,60.00,Saturday
4973,-1.0019317086739466
4826,1957344.3676580124
4827,6.988329914747738e-8
2,3, 1, 3, 0,20, 0.00,60.00,Saturday
4973,-0.9947381404785713
4826,1815626.9235725837
4827,7.267146884260001e-8
2,3, 1, 3, 0,21, 0.00,60.00,Saturday
4973,-0.9868898500720685
4826,1745113.394664267
4827,2.0821744328713977e-8
2,3, 1, 3, 0,22, 0.00,60.00,Saturday
4973,-0.9789078505589481
4826,1718236.0439607264
4827,4.077378434885759e-8
2,3, 1, 3, 0,23, 0.00,60.00,Saturday
4973,-0.9725591506738187
4826,1705537.4912046316
4827,3.069544618483633e-8
2,3, 1, 3, 0,24, 0.00,60.00,Saturday
4973,-0.9664835498552384
4826,1638907.1231757568
4827,6.74788225296652e-8
2,4, 1, 4, 0, 1, 0.00,60.00,Sunday
4973,-0.9628961431592259
4826,1775219.5751297465
4827,6.082171588061556
2,4, 1, 4, 0, 2, 0.00,60.00,Sunday
4973,-0.9585929575192587
4826,1775314.8415374389
4827,5.484253051690757e-8
2,4, 1, 4, 0, 3, 0.00,60.00,Sunday
4973,-0.9554384979941858
4826,1756348.0973675934
4827,2.701199264265597e-8
2,4, 1, 4, 0, 4, 0.00,60.00,Sunday
4973,-0.9522965272348494
4826,1743005.8387030028
4827,6.481855052697938e-8
2,4, 1, 4, 0, 5, 0.00,60.00,Sunday
4973,-0.948826188239782
4826,1733899.4958677644
4827,8.067786438914482e-8
2,4, 1, 4, 0, 6, 0.00,60.00,Sunday
4973,-0.9450540739705587
4826,1728762.522848793
4827,3.141167326248251e-8
2,4, 1, 4, 0, 7, 0.00,60.00,Sunday
4973,-0.9417243140791141
4826,1722364.1878892924
4827,4.957314558851067e-8
2,4, 1, 4, 0, 8, 0.00,60.00,Sunday
4973,-0.939121439207474
4826,1711568.4274574239
4827,5.234767286310671e-8
2,4, 1, 4, 0, 9, 0.00,60.00,Sunday
4973,-0.9385947176957283
4826,1751037.6747162869
4827,9.929976840794552e-8
2,4, 1, 4, 0,10, 0.00,60.00,Sunday
4973,-0.9386829266392437
4826,1724681.8682919164
4827,4.246203388902359e-8
2,4, 1, 4, 0,11, 0.00,60.00,Sunday
4973,-0.9391437825967016
4826,1755340.8989017592
4827,1.3301360013429076e-8
2,4, 1, 4, 0,12, 0.00,60.00,Sunday
4973,-0.9417041840142738
4826,1723255.405010488
4827,4.036451173305977e-8
2,4, 1, 4, 0,13, 0.00,60.00,Sunday
4973,-0.9429129827247477
4826,1683289.06832307
4827,3.545324034348596e-8
2,4, 1, 4, 0,14, 0.00,60.00,Sunday
4973,-0.9433354697941391
4826,1630039.4977716404
4827,5.284732651489321e-8
2,4, 1, 4, 0,15, 0.00,60.00,Sunday
4973,-0.940502330224662
4826,1523817.8917006937
4827,3.3713831726345236e-8
2,4, 1, 4, 0,16, 0.00,60.00,Sunday
4973,-0.9327547339679994
4826,1471548.7200019654
4827,4.6912873585824857e-8
2,4, 1, 4, 0,17, 0.00,60.00,Sunday
4973,-0.9247318580460469
4826,1505984.2384599935
4827,3.304876372567378e-8
2,4, 1, 4, 0,18, 0.00,60.00,Sunday
4973,-0.9204134262988402
4826,1517065.3578355422
4827,0.0
2,4, 1, 4, 0,19, 0.00,60.00,Sunday
4973,-0.9165064970515682
4826,1528817.6337557759
4827,6.093046067690011e-8
2,4, 1, 4, 0,20, 0.00,60.00,Sunday
4973,-0.9125989755723312
4826,1431705.4470204074
4827,2.4709834178793245e-8
2,4, 1, 4, 0,21, 0.00,60.00,Sunday
4973,-0.910364479384927
4826,1398036.4947068196
4827,2.7267788027529606e-8
2,4, 1, 4, 0,22, 0.00,60.00,Sunday
4973,-0.9082892529064971
4826,1394090.8112072095
4827,4.04156708100345e-9
2,4, 1, 4, 0,23, 0.00,60.00,Sunday
4973,-0.9062535701188986
4826,1390259.9339103224
4827,4.143885234952904e-8
2,4, 1, 4, 0,24, 0.00,60.00,Sunday
4973,-0.904005410090444
4826,1324794.6564988306
4827,4.389448804431595e-8
2,5, 1, 5, 0, 1, 0.00,60.00,Monday
4973,-0.9040009945310467
4826,1457985.0714875556
4827,0.5437290171983023
2,5, 1, 5, 0, 2, 0.00,60.00,Monday
4973,-0.903163274939757
4826,1453567.4427527018
4827,4.2513192965998317e-8
2,5, 1, 5, 0, 3, 0.00,60.00,Monday
4973,-0.9033007108212792
4826,1468557.1505515972
4827,5.1159076974727216e-8
2,5, 1, 5, 0, 4, 0.00,60.00,Monday
4973,-0.9052025904512019
4826,1486236.8439399284
4827,3.944364834751468e-8
2,5, 1, 5, 0, 5, 0.00,60.00,Monday
4973,-0.90828515971654
4826,1498091.4422423728
4827,4.921503204968758e-8
2,5, 1, 5, 0, 6, 0.00,60.00,Monday
4973,-0.9109980549026882
4826,1510995.020176504
4827,2.716546987358015e-8
2,5, 1, 5, 0, 7, 0.00,60.00,Monday
4973,-0.9135085289739175
4826,1524512.1228927198
4827,2.9518787414417603e-8
2,5, 1, 5, 0, 8, 0.00,60.00,Monday
4973,-1.4157631622116088
4826,0.0
4827,0.0
2,5, 1, 5, 0, 9, 0.00,60.00,Monday
4973,-1.6915044359795968
4826,0.0
4827,0.0
2,5, 1, 5, 0,10, 0.00,60.00,Monday
4973,-1.71246988155857
4826,0.0
4827,0.0
2,5, 1, 5, 0,11, 0.00,60.00,Monday
4973,-1.7239699740831656
4826,0.0
4827,0.0
2,5, 1, 5, 0,12, 0.00,60.00,Monday
4973,-1.732759839945171
4826,0.0
4827,0.0
2,5, 1, 5, 0,13, 0.00,60.00,Monday
4973,-1.736891467423778
4826,0.0
4827,0.0
2,5, 1, 5, 0,14, 0.00,60.00,Monday
4973,-1.7340381194461774
4826,0.0
4827,0.0
2,5, 1, 5, 0,15, 0.00,60.00,Monday
4973,-1.7290481705132078
4826,0.0
4827,0.0
2,5, 1, 5, 0,16, 0.00,60.00,Monday
4973,-1.7218272951946583
4826,0.0
4827,0.0
2,5, 1, 5, 0,17, 0.00,60.00,Monday
4973,-1.719023805051966
4826,0.0
4827,0.0
2,5, 1, 5, 0,18, 0.00,60.00,Monday
4973,-1.717987800845174
4826,0.0
4827,0.0
2,5, 1, 5, 0,19, 0.00,60.00,Monday
4973,-1.7193470873245689
4826,0.0
4827,0.0
2,5, 1, 5, 0,20, 0.00,60.00,Monday
4973,-1.7119153320724908
4826,0.0
4827,0.0
2,5, 1, 5, 0,21, 0.00,60.00,Monday
4973,-1.7262628482881513
4826,0.0
4827,0.0
2,5, 1, 5, 0,22, 0.00,60.00,Monday
4973,-1.19881099762582
4826,2605738.2390325905
4827,5.2651216719823427e-8
2,5, 1, 5, 0,23, 0.00,60.00,Monday
4973,-1.0144923338106747
4826,1779988.8180710157
4827,5.8270188674214299e-8
2,5, 1, 5, 0,24, 0.00,60.00,Monday
4973,-1.00265482810912
4826,1670778.2120031869
4827,6.660911822109483e-8
2,6, 1, 6, 0, 1, 0.00,60.00,Tuesday
4973,-0.9936549628305537
4826,1857637.102664214
4827,5.435445854052432
2,6, 1, 6, 0, 2, 0.00,60.00,Tuesday
4973,-0.986354030588936
4826,1856963.0249253237
4827,7.315748007385992e-8
2,6, 1, 6, 0, 3, 0.00,60.00,Tuesday
4973,-0.9786631792049585
4826,1814946.1559978743
4827,2.2100721253082157e-8
2,6, 1, 6, 0, 4, 0.00,60.00,Tuesday
4973,-0.971260623186361
4826,1785247.1791075445
4827,4.553157850750722e-8
2,6, 1, 6, 0, 5, 0.00,60.00,Tuesday
4973,-0.964401732221413
4826,1771928.435009079
4827,4.645244189305231e-8
2,6, 1, 6, 0, 6, 0.00,60.00,Tuesday
4973,-0.958121059928868
4826,1755793.623232063
4827,3.657874003692996e-8
2,6, 1, 6, 0, 7, 0.00,60.00,Tuesday
4973,-0.952850001979024
4826,1741340.012532122
4827,7.602238838444464e-8
2,6, 1, 6, 0, 8, 0.00,60.00,Tuesday
4973,-1.448390920718538
4826,0.0
4827,0.0
2,6, 1, 6, 0, 9, 0.00,60.00,Tuesday
4973,-1.7381346842178638
4826,0.0
4827,0.0
2,6, 1, 6, 0,10, 0.00,60.00,Tuesday
4973,-1.7442079985361963
4826,0.0
4827,0.0
2,6, 1, 6, 0,11, 0.00,60.00,Tuesday
4973,-1.730487667014571
4826,0.0
4827,0.0
2,6, 1, 6, 0,12, 0.00,60.00,Tuesday
4973,-1.7128869503258196
4826,0.0
4827,0.0
2,6, 1, 6, 0,13, 0.00,60.00,Tuesday
4973,-1.687162684865102
4826,0.0
4827,0.0
2,6, 1, 6, 0,14, 0.00,60.00,Tuesday
4973,-1.648135413637726
4826,0.0
4827,0.0
2,6, 1, 6, 0,15, 0.00,60.00,Tuesday
4973,-1.6059255759981377
4826,0.0
4827,0.0
2,6, 1, 6, 0,16, 0.00,60.00,Tuesday
4973,-1.5515182345075148
4826,0.0
4827,0.0
2,6, 1, 6, 0,17, 0.00,60.00,Tuesday
4973,-1.5144920785164096
4826,0.0
4827,0.0
2,6, 1, 6, 0,18, 0.00,60.00,Tuesday
4973,-1.5222427574990625
4826,0.0
4827,0.0
2,6, 1, 6, 0,19, 0.00,60.00,Tuesday
4973,-1.5553219462075705
4826,0.0
4827,0.0
2,6, 1, 6, 0,20, 0.00,60.00,Tuesday
4973,-1.5777846818757054
4826,0.0
4827,0.0
2,6, 1, 6, 0,21, 0.00,60.00,Tuesday
4973,-1.6090969815160777
4826,0.0
4827,0.0
2,6, 1, 6, 0,22, 0.00,60.00,Tuesday
4973,-1.1407771511365666
4826,2367099.730563296
4827,7.058588380459696e-8
2,6, 1, 6, 0,23, 0.00,60.00,Tuesday
4973,-0.9773078565287728
4826,1672432.3964044825
4827,5.213109943724703e-8
2,6, 1, 6, 0,24, 0.00,60.00,Tuesday
4973,-0.9672341287929005
4826,1576859.696765861
4827,4.261551111994777e-8
2,7, 1, 7, 0, 1, 0.00,60.00,Wednesday
4973,-0.9627008152545036
4826,1774703.2277428518
4827,4.853461632592371e-8
2,7, 1, 7, 0, 2, 0.00,60.00,Wednesday
4973,-0.9604270459684381
4826,1791683.9725050582
4827,9.679297363618389e-8
2,7, 1, 7, 0, 3, 0.00,60.00,Wednesday
4973,-0.9602194952620122
4826,1822458.5367051459
4827,3.0951241569709967e-8
2,7, 1, 7, 0, 4, 0.00,60.00,Wednesday
4973,-0.9618304552780597
4826,1869478.8261337304
4827,5.0238213589182126e-8
2,7, 1, 7, 0, 5, 0.00,60.00,Wednesday
4973,-0.965451302826749
4826,1931419.7815238373
4827,5.617266651825048e-8
2,7, 1, 7, 0, 6, 0.00,60.00,Wednesday
4973,-0.9707443308975313
4826,1990452.4018046556
4827,6.405116437235847e-8
2,7, 1, 7, 0, 7, 0.00,60.00,Wednesday
4973,-0.9762059696026043
4826,2038793.9917999444
4827,2.9672264645341785e-8
2,7, 1, 7, 0, 8, 0.00,60.00,Wednesday
4973,-1.6080271935738447
4826,0.0
4827,0.0
2,7, 1, 7, 0, 9, 0.00,60.00,Wednesday
4973,-1.947414962151081
4826,0.0
4827,0.0
2,7, 1, 7, 0,10, 0.00,60.00,Wednesday
4973,-1.9734726480164522
4826,0.0
4827,0.0
2,7, 1, 7, 0,11, 0.00,60.00,Wednesday
4973,-1.9764300361861354
4826,0.0
4827,0.0
2,7, 1, 7, 0,12, 0.00,60.00,Wednesday
4973,-1.956792094781776
4826,0.0
4827,0.0
2,7, 1, 7, 0,13, 0.00,60.00,Wednesday
4973,-1.9096313394895053
4826,0.0
4827,0.0
2,7, 1, 7, 0,14, 0.00,60.00,Wednesday
4973,-1.833597794350855
4826,0.0
4827,0.0
2,7, 1, 7, 0,15, 0.00,60.00,Wednesday
4973,-1.7345306124201439
4826,0.0
4827,0.0
2,7, 1, 7, 0,16, 0.00,60.00,Wednesday
4973,-1.61507541695994
4826,0.0
4827,0.0
2,7, 1, 7, 0,17, 0.00,60.00,Wednesday
4973,-1.5293803349492157
4826,0.0
4827,0.0
2,7, 1, 7, 0,18, 0.00,60.00,Wednesday
4973,-1.5380477330832394
4826,0.0
4827,0.0
2,7, 1, 7, 0,19, 0.00,60.00,Wednesday
4973,-1.5700732487612608
4826,0.0
4827,0.0
2,7, 1, 7, 0,20, 0.00,60.00,Wednesday
4973,-1.5927532058042285
4826,0.0
4827,0.0
2,7, 1, 7, 0,21, 0.00,60.00,Wednesday
4973,-1.616809119802194
4826,0.0
4827,0.0
2,7, 1, 7, 0,22, 0.00,60.00,Wednesday
4973,-1.166084507411086
4826,2306811.4174510638
4827,3.8483563002955637e-8
2,7, 1, 7, 0,23, 0.00,60.00,Wednesday
4973,-1.0108682665379579
4826,1676397.078150808
4827,4.15411705034785e-8
2,7, 1, 7, 0,24, 0.00,60.00,Wednesday
4973,-1.0000652492493656
4826,1584597.48308649
4827,3.908553480869159e-8
2,8, 1, 8, 0, 1, 0.00,60.00,Thursday
4973,-0.9942845147295545
4826,1783707.4668262993
4827,6.903844353343759e-8
2,8, 1, 8, 0, 2, 0.00,60.00,Thursday
4973,-0.989187557522502
4826,1790332.5318820612
4827,2.0617108020815068e-8
2,8, 1, 8, 0, 3, 0.00,60.00,Thursday
4973,-0.9846714772565992
4826,1810548.8490951933
4827,6.553477760462556e-8
2,8, 1, 8, 0, 4, 0.00,60.00,Thursday
4973,-0.980890482430429
4826,1828374.9262081832
4827,3.801119419222232e-8
2,8, 1, 8, 0, 5, 0.00,60.00,Thursday
4973,-0.9775674704016046
4826,1835385.7084872239
4827,8.599840839451645e-8
2,8, 1, 8, 0, 6, 0.00,60.00,Thursday
4973,-0.974161300119174
4826,1841387.2135485919
4827,5.566107574850321e-8
2,8, 1, 8, 0, 7, 0.00,60.00,Thursday
4973,-0.9716866340306916
4826,1838150.856965338
4827,6.568825483554974e-8
2,8, 1, 8, 0, 8, 0.00,60.00,Thursday
4973,-1.4849407188575983
4826,0.0
4827,0.0
2,8, 1, 8, 0, 9, 0.00,60.00,Thursday
4973,-1.7829774087942836
4826,0.0
4827,0.0
2,8, 1, 8, 0,10, 0.00,60.00,Thursday
4973,-1.7901882930043272
4826,0.0
4827,0.0
2,8, 1, 8, 0,11, 0.00,60.00,Thursday
4973,-1.781623017634249
4826,0.0
4827,0.0
2,8, 1, 8, 0,12, 0.00,60.00,Thursday
4973,-1.7614654554348047
4826,0.0
4827,0.0
2,8, 1, 8, 0,13, 0.00,60.00,Thursday
4973,-1.7384463687362984
4826,0.0
4827,0.0
2,8, 1, 8, 0,14, 0.00,60.00,Thursday
4973,-1.7140171154799336
4826,0.0
4827,0.0
2,8, 1, 8, 0,15, 0.00,60.00,Thursday
4973,-1.690463546291156
4826,0.0
4827,0.0
2,8, 1, 8, 0,16, 0.00,60.00,Thursday
4973,-1.670468850508418
4826,0.0
4827,0.0
2,8, 1, 8, 0,17, 0.00,60.00,Thursday
4973,-1.6509414379161079
4826,0.0
4827,0.0
2,8, 1, 8, 0,18, 0.00,60.00,Thursday
4973,-1.6502187817682126
4826,0.0
4827,0.0
2,8, 1, 8, 0,19, 0.00,60.00,Thursday
4973,-1.6679038089953973
4826,0.0
4827,0.0
2,8, 1, 8, 0,20, 0.00,60.00,Thursday
4973,-1.6817564328116657
4826,0.0
4827,0.0
2,8, 1, 8, 0,21, 0.00,60.00,Thursday
4973,-1.694461169640391
4826,0.0
4827,0.0
2,8, 1, 8, 0,22, 0.00,60.00,Thursday
4973,-1.1877377407318604
4826,2485606.886384414
4827,3.009347437910037e-8
2,8, 1, 8, 0,23, 0.00,60.00,Thursday
4973,-1.0111326833275194
4826,1726335.2922059964
4827,6.01630745222792e-8
2,8, 1, 8, 0,24, 0.00,60.00,Thursday
4973,-0.9954761765963787
4826,1631753.1075122718
4827,1.1137331057398115e-7
2,9, 1, 9, 0, 1, 0.00,60.00,Friday
4973,-0.9881280768476872
4826,1843017.9135839088
4827,9.389079228380329e-8
2,9, 1, 9, 0, 2, 0.00,60.00,Friday
4973,-0.9845275368563171
4826,1866403.2590851917
4827,9.065388439921662e-8
2,9, 1, 9, 0, 3, 0.00,60.00,Friday
4973,-0.9818039196496518
4826,1869519.3341634717
4827,8.154756869771518e-8
2,9, 1, 9, 0, 4, 0.00,60.00,Friday
4973,-0.9783753441591694
4826,1856350.9497614569
4827,1.667785909376107e-8
2,9, 1, 9, 0, 5, 0.00,60.00,Friday
4973,-0.9741403285437611
4826,1841999.9507808034
4827,7.034373084024992e-8
2,9, 1, 9, 0, 6, 0.00,60.00,Friday
4973,-0.9698466545435587
4826,1830129.9953399909
4827,5.397282620833721e-8
2,9, 1, 9, 0, 7, 0.00,60.00,Friday
4973,-0.9665717468908398
4826,1819420.5932993603
4827,3.709033080667723e-8
2,9, 1, 9, 0, 8, 0.00,60.00,Friday
4973,-1.471127138628421
4826,0.0
4827,0.0
2,9, 1, 9, 0, 9, 0.00,60.00,Friday
4973,-1.7733944070421944
4826,0.0
4827,0.0
2,9, 1, 9, 0,10, 0.00,60.00,Friday
4973,-1.7975991739984465
4826,0.0
4827,0.0
2,9, 1, 9, 0,11, 0.00,60.00,Friday
4973,-1.801303428987073
4826,0.0
4827,0.0
2,9, 1, 9, 0,12, 0.00,60.00,Friday
4973,-1.7997144311912395
4826,0.0
4827,0.0
2,9, 1, 9, 0,13, 0.00,60.00,Friday
4973,-1.79739439067212
4826,0.0
4827,0.0
2,9, 1, 9, 0,14, 0.00,60.00,Friday
4973,-1.7900562598915256
4826,0.0
4827,0.0
2,9, 1, 9, 0,15, 0.00,60.00,Friday
4973,-1.7866296575297647
4826,0.0
4827,0.0
2,9, 1, 9, 0,16, 0.00,60.00,Friday
4973,-1.782973568358652
4826,0.0
4827,0.0
2,9, 1, 9, 0,17, 0.00,60.00,Friday
4973,-1.78580627705657
4826,0.0
4827,0.0
2,9, 1, 9, 0,18, 0.00,60.00,Friday
4973,-1.7947282229831117
4826,0.0
4827,0.0
2,9, 1, 9, 0,19, 0.00,60.00,Friday
4973,-1.8011263275102592
4826,0.0
4827,0.0
2,9, 1, 9, 0,20, 0.00,60.00,Friday
4973,-1.7915271310512169
4826,0.0
4827,0.0
2,9, 1, 9, 0,21, 0.00,60.00,Friday
4973,-1.7896951929834449
4826,0.0
4827,0.0
2,9, 1, 9, 0,22, 0.00,60.00,Friday
4973,-1.2295616763371625
4826,2767116.8208012299
4827,4.371031536720693e-8
2,9, 1, 9, 0,23, 0.00,60.00,Friday
4973,-1.0389991083371113
4826,1900776.7374460377
4827,0.0
2,9, 1, 9, 0,24, 0.00,60.00,Friday
4973,-1.0248804167926194
4826,1759516.7783621574
4827,2.7830537874251605e-8
2,10, 1,10, 0, 1, 0.00,60.00,Saturday
4973,-1.0165361856683047
4826,1914335.8677849556
4827,2.0729033668273395
2,10, 1,10, 0, 2, 0.00,60.00,Saturday
4973,-1.0100061010782764
4826,1888123.2120179409
4827,3.212790034012869e-8
2,10, 1,10, 0, 3, 0.00,60.00,Saturday
4973,-1.0042662800888738
4826,1851782.4806739535
4827,7.607354746141937e-8
2,10, 1,10, 0, 4, 0.00,60.00,Saturday
4973,-0.9986036186375935
4826,1824236.949355805
4827,6.681375452899374e-8
2,10, 1,10, 0, 5, 0.00,60.00,Saturday
4973,-0.9928252904370185
4826,1806989.999146346
4827,1.6831336324685254e-8
2,10, 1,10, 0, 6, 0.00,60.00,Saturday
4973,-0.9874494998768978
4826,1796778.5148813967
4827,2.7677060643327424e-8
2,10, 1,10, 0, 7, 0.00,60.00,Saturday
4973,-0.9830114042226914
4826,1786188.1752561168
4827,1.964508555829525e-8
2,10, 1,10, 0, 8, 0.00,60.00,Saturday
4973,-0.9794944939277457
4826,1769343.5421131172
4827,4.257628916093381e-8
2,10, 1,10, 0, 9, 0.00,60.00,Saturday
4973,-0.9767600648253512
4826,1818341.6589556079
4827,5.028937266615685e-8
2,10, 1,10, 0,10, 0.00,60.00,Saturday
4973,-0.9747651315585943
4826,1794146.5543140458
4827,1.0385292625869625e-8
2,10, 1,10, 0,11, 0.00,60.00,Saturday
4973,-0.9733515438755793
4826,1806590.6870195347
4827,4.292246558179613e-8
2,10, 1,10, 0,12, 0.00,60.00,Saturday
4973,-0.9728572668761832
4826,1749680.3539922997
4827,6.226059667824302e-8
2,10, 1,10, 0,13, 0.00,60.00,Saturday
4973,-0.9709731130885853
4826,1677316.7617781647
4827,3.5709035728359598e-8
2,10, 1,10, 0,14, 0.00,60.00,Saturday
4973,-0.9679806801107074
4826,1596660.5126519264
4827,2.737010618147906e-8
2,10, 1,10, 0,15, 0.00,60.00,Saturday
4973,-0.9593838825946017
4826,1440899.2665323409
4827,2.204956217610743e-8
2,10, 1,10, 0,16, 0.00,60.00,Saturday
4973,-0.9434738313603306
4826,1347014.264001296
4827,6.256755114009138e-8
2,10, 1,10, 0,17, 0.00,60.00,Saturday
4973,-0.9269140581492685
4826,1372043.6760358152
4827,4.998241820430849e-8
2,10, 1,10, 0,18, 0.00,60.00,Saturday
4973,-0.9136463183705863
4826,1367860.2063534612
4827,5.1670667744474489e-9
2,10, 1,10, 0,19, 0.00,60.00,Saturday
4973,-0.9127686665597254
4826,1411343.2664983629
4827,1.156195139628835e-8
2,10, 1,10, 0,20, 0.00,60.00,Saturday
4973,-0.9121530895260489
4826,1329125.5995140649
4827,2.7318947104504333e-8
2,10, 1,10, 0,21, 0.00,60.00,Saturday
4973,-0.9111105126256762
4826,1306957.8884154887
4827,5.509832590178121e-8
2,10, 1,10, 0,22, 0.00,60.00,Saturday
4973,-0.9062835727301908
4826,1293871.555196731
4827,2.9467628337442876e-8
2,10, 1,10, 0,23, 0.00,60.00,Saturday
4973,-0.8993044466010831
4826,1292550.492927461
4827,6.850200406915974e-8
2,10, 1,10, 0,24, 0.00,60.00,Saturday
4973,-0.8927721657177452
4826,1269336.9512712477
4827,7.684093361604028e-8
2,11, 1,11, 0, 1, 0.00,60.00,Sunday
4973,-0.8931391443913164
4826,1467656.6470838127
4827,4.911352594457899e-8
2,11, 1,11, 0, 2, 0.00,60.00,Sunday
4973,-0.8977888094841622
4826,1530507.4508224398
4827,1.8468426787876525e-8
2,11, 1,11, 0, 3, 0.00,60.00,Sunday
4973,-0.9039806129994024
4826,1563207.1605448847
4827,4.04156708100345e-8
2,11, 1,11, 0, 4, 0.00,60.00,Sunday
4973,-0.9073277565050218
4826,1574515.2967236457
4827,4.108073881070595e-8
2,11, 1,11, 0, 5, 0.00,60.00,Sunday
4973,-0.908383466190616
4826,1588084.0813377894
4827,3.40207861881936e-8
2,11, 1,11, 0, 6, 0.00,60.00,Sunday
4973,-0.9102278998413484
4826,1606409.957920349
4827,3.673221726785414e-8
2,11, 1,11, 0, 7, 0.00,60.00,Sunday
4973,-0.9128618931486258
4826,1621260.7644308708
4827,4.389448804431595e-8
2,11, 1,11, 0, 8, 0.00,60.00,Sunday
4973,-0.9141469850960623
4826,1604359.4486956716
4827,4.8884203351917679e-8
2,11, 1,11, 0, 9, 0.00,60.00,Sunday
4973,-0.9130776187579809
4826,1585449.176597983
4827,5.5507598517579029e-8
2,11, 1,11, 0,10, 0.00,60.00,Sunday
4973,-0.9082484260596385
4826,1510413.7464020244
4827,7.377138899755664e-8
2,11, 1,11, 0,11, 0.00,60.00,Sunday
4973,-0.9016603251601979
4826,1511633.783607609
4827,4.036451173305977e-8
2,11, 1,11, 0,12, 0.00,60.00,Sunday
4973,-0.8962038094325944
4826,1472567.3265829844
4827,4.583853296935558e-8
2,11, 1,11, 0,13, 0.00,60.00,Sunday
4973,-0.8922190899212271
4826,1440418.26507075
4827,2.7574742489377969e-8
2,11, 1,11, 0,14, 0.00,60.00,Sunday
4973,-0.8888057494443773
4826,1418927.1274117302
4827,1.4273382475948893e-8
2,11, 1,11, 0,15, 0.00,60.00,Sunday
4973,-0.8856557605421112
4826,1329727.44188821
4827,1.6370904631912709e-8
2,11, 1,11, 0,16, 0.00,60.00,Sunday
4973,-0.881969832928886
4826,1299930.1005388185
4827,9.050040716829244e-8
2,11, 1,11, 0,17, 0.00,60.00,Sunday
4973,-0.8801301827002392
4826,1339365.8908785287
4827,2.752358341240324e-8
2,11, 1,11, 0,18, 0.00,60.00,Sunday
4973,-0.8795587495489162
4826,1328503.2648776216
4827,2.389128894719761e-8
2,11, 1,11, 0,19, 0.00,60.00,Sunday
4973,-0.8771640677005577
4826,1305497.0739136239
4827,3.729496711457614e-8
2,11, 1,11, 0,20, 0.00,60.00,Sunday
4973,-0.8745852838043189
4826,1165183.9588736466
4827,2.3277380023500883e-8
2,11, 1,11, 0,21, 0.00,60.00,Sunday
4973,-0.8718074983227988
4826,1107799.320596899
4827,1.816147232602816e-8
2,11, 1,11, 0,22, 0.00,60.00,Sunday
4973,-0.8690246178391711
4826,1090231.1009501382
4827,3.969944373238832e-8
2,11, 1,11, 0,23, 0.00,60.00,Sunday
4973,-0.8680836105737206
4826,1078240.9894245433
4827,3.724380803760141e-8
2,11, 1,11, 0,24, 0.00,60.00,Sunday
4973,-0.8674278365134884
4826,1017156.8222748737
4827,2.036131263594143e-8
2,12, 1,12, 0, 1, 0.00,60.00,Monday
4973,-0.8685259276039928
4826,1159994.5979825766
4827,3.2831829562732867e-8
2,12, 1,12, 0, 2, 0.00,60.00,Monday
4973,-0.869754493927819
4826,1171338.6902447115
4827,2.3584334485349247e-8
2,12, 1,12, 0, 3, 0.00,60.00,Monday
4973,-0.8714769089905777
4826,1201644.918970232
4827,2.916067387559451e-8
2,12, 1,12, 0, 4, 0.00,60.00,Monday
4973,-0.8727733545370565
4826,1229533.6658164133
4827,5.269384928396903e-8
2,12, 1,12, 0, 5, 0.00,60.00,Monday
4973,-0.8725590118339714
4826,1255164.905154714
4827,3.0746605261811058e-8
2,12, 1,12, 0, 6, 0.00,60.00,Monday
4973,-0.8708476610892399
4826,1279132.736347591
4827,4.553157850750722e-8
2,12, 1,12, 0, 7, 0.00,60.00,Monday
4973,-0.8680484034733553
4826,1295406.2297139825
4827,1.084572431864217e-8
2,12, 1,12, 0, 8, 0.00,60.00,Monday
4973,-1.3111765559629929
4826,0.0
4827,0.0
2,12, 1,12, 0, 9, 0.00,60.00,Monday
4973,-1.5508501231076389
4826,0.0
4827,0.0
2,12, 1,12, 0,10, 0.00,60.00,Monday
4973,-1.5545663951188649
4826,0.0
4827,0.0
2,12, 1,12, 0,11, 0.00,60.00,Monday
4973,-1.55680246692459
4826,0.0
4827,0.0
2,12, 1,12, 0,12, 0.00,60.00,Monday
4973,-1.5634776798792106
4826,0.0
4827,0.0
2,12, 1,12, 0,13, 0.00,60.00,Monday
4973,-1.567117315570542
4826,0.0
4827,0.0
2,12, 1,12, 0,14, 0.00,60.00,Monday
4973,-1.573686853311932
4826,0.0
4827,0.0
2,12, 1,12, 0,15, 0.00,60.00,Monday
4973,-1.5732130172633508
4826,0.0
4827,0.0
2,12, 1,12, 0,16, 0.00,60.00,Monday
4973,-1.565734027236778
4826,0.0
4827,0.0
2,12, 1,12, 0,17, 0.00,60.00,Monday
4973,-1.5555979221305494
4826,0.0
4827,0.0
2,12, 1,12, 0,18, 0.00,60.00,Monday
4973,-1.5467077952980575
4826,0.0
4827,0.0
2,12, 1,12, 0,19, 0.00,60.00,Monday
4973,-1.5456013355358316
4826,0.0
4827,0.0
2,12, 1,12, 0,20, 0.00,60.00,Monday
4973,-1.5400063664855129
4826,0.0
4827,0.0
2,12, 1,12, 0,21, 0.00,60.00,Monday
4973,-1.5434699568065869
4826,0.0
4827,0.0
2,12, 1,12, 0,22, 0.00,60.00,Monday
4973,-1.0912663929284939
4826,2058265.6694826927
4827,3.8560301618417728e-8
2,12, 1,12, 0,23, 0.00,60.00,Monday
4973,-0.9382496383958279
4826,1371622.6502607936
4827,1.5347723092418165e-9
2,12, 1,12, 0,24, 0.00,60.00,Monday
4973,-0.927201348416406
4826,1259328.4920295962
4827,1.979856278921943e-8
2,13, 1,13, 0, 1, 0.00,60.00,Tuesday
4973,-0.9204700129260444
4826,1435925.5012566518
4827,4.435125601771863
2,13, 1,13, 0, 2, 0.00,60.00,Tuesday
4973,-0.9147779275746564
4826,1426299.9947251024
4827,6.671143637504429e-8
2,13, 1,13, 0, 3, 0.00,60.00,Tuesday
4973,-0.9097041071618264
4826,1418661.641246552
4827,1.0835492503247224e-7
2,13, 1,13, 0, 4, 0.00,60.00,Tuesday
4973,-0.9052156426562542
4826,1411875.175287555
4827,6.133973329269793e-8
2,13, 1,13, 0, 5, 0.00,60.00,Tuesday
4973,-0.9009884453208843
4826,1410287.0825404232
4827,4.96243046654854e-8
2,13, 1,13, 0, 6, 0.00,60.00,Tuesday
4973,-0.8968894833360899
4826,1412857.2018235578
4827,7.597122930746991e-8
2,13, 1,13, 0, 7, 0.00,60.00,Tuesday
4973,-0.8939309134356424
4826,1412869.9111149337
4827,5.586571205640212e-8
2,13, 1,13, 0, 8, 0.00,60.00,Tuesday