Program Version,EnergyPlus, Version 8.7.0-78a111df4a, YMD=2019.05.28 05:48
1,5,Environment Title[],Latitude[deg],Longitude[deg],Time Zone[],Elevation[m]
2,6,Day of Simulation[],Month[],Day of Month[],DST Indicator[1=yes 0=no],Hour[],StartMinute[],EndMinute[],DayType
3,3,Cumulative Day of Simulation[],Month[],Day of Month[],DST Indicator[1=yes 0=no],DayType  ! When Daily Report Variables Requested
4,2,Cumulative Days of Simulation[],Month[]  ! When Monthly Report Variables Requested
5,1,Cumulative Days of Simulation[] ! When Run Period Report Variables Requested
4826,1,BEDROOM2.2,Zone Ideal Loads Zone Total Heating Energy [J] !Hourly
4827,1,BEDROOM2.2,Zone Ideal Loads Zone Total Cooling Energy [J] !Hourly
4973,1,BEDROOM2.2,Zone Thermal Comfort Fanger Model PMV [] !Hourly
End of Data Dictionary
1,RUNPERIOD,  29.58, 106.47,   8.00, 259.10
2,1, 1, 1, 0, 1, 0.00,60.00,Thursday
4973,-1.0867870169381884
4826,2396634.8256122737
4827,8.046733703601852e-8
2,1, 1, 1, 0, 2, 0.00,60.00,Thursday
4973,-1.0786336900911562
4826,2402004.9709803087
4827,1.1265228749834933e-7
2,1, 1, 1, 0, 3, 0.00,60.00,Thursday
4973,-1.0702920174073436
4826,2335613.9034120275
4827,1.062062437995337e-7
2,1, 1, 1, 0, 4, 0.00,60.00,Thursday
4973,-1.0633692536568276
4826,2302009.302268391
4827,8.615188562544063e-8
2,1, 1, 1, 0, 5, 0.00,60.00,Thursday
4973,-1.059368834691626
4826,2315760.043953527
4827,5.944684744463302e-8
2,1, 1, 1, 0, 6, 0.00,60.00,Thursday
4973,-1.0584982871463083
4826,2334707.3565191959
4827,7.49992068449501e-8
2,1, 1, 1, 0, 7, 0.00,60.00,Thursday
4973,-1.0596522294837443
4826,2348349.149623835
4827,7.100879884092137e-8
2,1, 1, 1, 0, 8, 0.00,60.00,Thursday
4973,-1.6809836976901425
4826,0.0
4827,0.0
2,1, 1, 1, 0, 9, 0.00,60.00,Thursday
4973,-2.0733750070866536
4826,0.0
4827,0.0
2,1, 1, 1, 0,10, 0.00,60.00,Thursday
4973,-2.1121190709446218
4826,0.0
4827,0.0
2,1, 1, 1, 0,11, 0.00,60.00,Thursday
4973,-2.1211891778233795
4826,0.0
4827,0.0
2,1, 1, 1, 0,12, 0.00,60.00,Thursday
4973,-2.1201322708537799
4826,0.0
4827,0.0
2,1, 1, 1, 0,13, 0.00,60.00,Thursday
4973,-2.1067403131495867
4826,0.0
4827,0.0
2,1, 1, 1, 0,14, 0.00,60.00,Thursday
4973,-2.075098246209178
4826,0.0
4827,0.0
2,1, 1, 1, 0,15, 0.00,60.00,Thursday
4973,-2.0327294904540249
4826,0.0
4827,0.0
2,1, 1, 1, 0,16, 0.00,60.00,Thursday
4973,-1.9760209492323009
4826,0.0
4827,0.0
2,1, 1, 1, 0,17, 0.00,60.00,Thursday
4973,-1.9090366645194202
4826,0.0
4827,0.0
2,1, 1, 1, 0,18, 0.00,60.00,Thursday
4973,-1.8493270935863029
4826,0.0
4827,0.0
2,1, 1, 1, 0,19, 0.00,60.00,Thursday
4973,-1.798986438796908
4826,0.0
4827,0.0
2,1, 1, 1, 0,20, 0.00,60.00,Thursday
4973,-1.7694854502024589
4826,0.0
4827,0.0
2,1, 1, 1, 0,21, 0.00,60.00,Thursday
4973,-1.80801368052773
4826,0.0
4827,0.0
2,1, 1, 1, 0,22, 0.00,60.00,Thursday
4973,-1.283532698051158
4826,3035992.3539777675
4827,4.535763764579315e-8
2,1, 1, 1, 0,23, 0.00,60.00,Thursday
4973,-1.0986204726457314
4826,2294620.1589456
4827,4.1745806811377409e-8
2,1, 1, 1, 0,24, 0.00,60.00,Thursday
4973,-1.093422144611125
4826,2187418.351472512
4827,5.381934897741303e-8
2,2, 1, 2, 0, 1, 0.00,60.00,Friday
4973,-1.090001251772684
4826,2373765.114084859
4827,5.2647341032173829e-8
2,2, 1, 2, 0, 2, 0.00,60.00,Friday
4973,-1.0871885698584776
4826,2366011.8531808976
4827,7.346443453570828e-8
2,2, 1, 2, 0, 3, 0.00,60.00,Friday
4973,-1.0853000788517329
4826,2364544.6957692287
4827,4.594085112330504e-8
2,2, 1, 2, 0, 4, 0.00,60.00,Friday
4973,-1.0815192519565969
4826,2356445.8948852655
4827,4.532694219960831e-8
2,2, 1, 2, 0, 5, 0.00,60.00,Friday
4973,-1.07692473705202
4826,2341492.9323717604
4827,8.420784070040099e-8
2,2, 1, 2, 0, 6, 0.00,60.00,Friday
4973,-1.0722309868778977
4826,2329753.976285296
4827,4.276898835087195e-8
2,2, 1, 2, 0, 7, 0.00,60.00,Friday
4973,-1.067728010820895
4826,2314500.5009488954
4827,9.802079148357734e-8
2,2, 1, 2, 0, 8, 0.00,60.00,Friday
4973,-1.6506813170588615
4826,0.0
4827,0.0
2,2, 1, 2, 0, 9, 0.00,60.00,Friday
4973,-1.9849748609074627
4826,0.0
4827,0.0
2,2, 1, 2, 0,10, 0.00,60.00,Friday
4973,-1.977592164194169
4826,0.0
4827,0.0
2,2, 1, 2, 0,11, 0.00,60.00,Friday
4973,-1.9636987989560868
4826,0.0
4827,0.0
2,2, 1, 2, 0,12, 0.00,60.00,Friday
4973,-1.9548386812491916
4826,0.0
4827,0.0
2,2, 1, 2, 0,13, 0.00,60.00,Friday
4973,-1.9442716912866467
4826,0.0
4827,0.0
2,2, 1, 2, 0,14, 0.00,60.00,Friday
4973,-1.932349763439455
4826,0.0
4827,0.0
2,2, 1, 2, 0,15, 0.00,60.00,Friday
4973,-1.9085473977092927
4826,0.0
4827,0.0
2,2, 1, 2, 0,16, 0.00,60.00,Friday
4973,-1.8750157699652888
4826,0.0
4827,0.0
2,2, 1, 2, 0,17, 0.00,60.00,Friday
4973,-1.8533424358423068
4826,0.0
4827,0.0
2,2, 1, 2, 0,18, 0.00,60.00,Friday
4973,-1.8738269333765972
4826,0.0
4827,0.0
2,2, 1, 2, 0,19, 0.00,60.00,Friday
4973,-1.9127144274464847
4826,0.0
4827,0.0
2,2, 1, 2, 0,20, 0.00,60.00,Friday
4973,-1.9362076125556174
4826,0.0
4827,0.0
2,2, 1, 2, 0,21, 0.00,60.00,Friday
4973,-1.9615521331961519
4826,0.0
4827,0.0
2,2, 1, 2, 0,22, 0.00,60.00,Friday
4973,-1.3296056044056382
4826,3323693.5495264919
4827,1.8420678316033446e-8
2,2, 1, 2, 0,23, 0.00,60.00,Friday
4973,-1.1052474371537269
4826,2318420.8289786728
4827,8.79936123965308e-9
2,2, 1, 2, 0,24, 0.00,60.00,Friday
4973,-1.0870072970798313
4826,2197238.941719561
4827,3.785771696129814e-8
2,3, 1, 3, 0, 1, 0.00,60.00,Saturday
4973,-1.0787483056621177
4826,2395257.203813663
4827,8.460192062061238e-8
2,3, 1, 3, 0, 2, 0.00,60.00,Saturday
4973,-1.0754221173394505
4826,2423422.6307883195
4827,8.661231731821317e-8
2,3, 1, 3, 0, 3, 0.00,60.00,Saturday
4973,-1.0767592735425567
4826,2430859.1198547265
4827,1.0600160749163479e-7
2,3, 1, 3, 0, 4, 0.00,60.00,Saturday
4973,-1.0778661234604683
4826,2424429.1189294059
4827,4.716866897069849e-8
2,3, 1, 3, 0, 5, 0.00,60.00,Saturday
4973,-1.0775336832537126
4826,2409212.999892797
4827,8.1956841313513e-8
2,3, 1, 3, 0, 6, 0.00,60.00,Saturday
4973,-1.0755264314738922
4826,2378450.33851963
4827,6.261871021706611e-8
2,3, 1, 3, 0, 7, 0.00,60.00,Saturday
4973,-1.0718191780483136
4826,2330432.3812416067
4827,1.5552359400317074e-8
2,3, 1, 3, 0, 8, 0.00,60.00,Saturday
4973,-1.066176613585871
4826,2277997.854655298
4827,8.054485078901053e-8
2,3, 1, 3, 0, 9, 0.00,60.00,Saturday
4973,-1.0613492198563369
4826,2278138.0305774186
4827,5.341007636161521e-8
2,3, 1, 3, 0,10, 0.00,60.00,Saturday
4973,-1.0565521986151565
4826,2226047.253266264
4827,4.553157850750722e-8
2,3, 1, 3, 0,11, 0.00,60.00,Saturday
4973,-1.0526239497267052
4826,2234519.1753410438
4827,8.523102223989554e-8
2,3, 1, 3, 0,12, 0.00,60.00,Saturday
4973,-1.0493610117231858
4826,2189767.7122360935
4827,5.402398528531194e-8
2,3, 1, 3, 0,13, 0.00,60.00,Saturday
4973,-1.045650228602987
4826,2150398.7552397737
4827,4.6145487431203949e-8
2,3, 1, 3, 0,14, 0.00,60.00,Saturday
4973,-1.0417185391078228
4826,2114607.996055995
4827,9.556515578879044e-8
2,3, 1, 3, 0,15, 0.00,60.00,Saturday
4973,-1.0367790475768848
4826,2045375.1772166617
4827,6.82462086842861e-8
2,3, 1, 3, 0,16, 0.00,60.00,Saturday
4973,-1.0304199960313907
4826,2027378.0276345285
4827,8.89144757820759e-8
2,3, 1, 3, 0,17, 0.00,60.00,Saturday
4973,-1.0253855760572495
4826,2056243.8931942497
4827,8.66634763951879e-8
2,3, 1, 3, 0,18, 0.00,60.00,Saturday
4973,-1.020638095571009
4826,2036665.1915668678
4827,5.054516805103049e-8
2,3, 1, 3, 0,19, 0.00,60.00,Saturday
4973,-1.0139199149471859
4826,2002015.2564271177
4827,2.660272002685815e-8
2,3, 1, 3, 0,20, 0.00,60.00,Saturday
4973,-1.006511866263917
4826,1859480.394900351
4827,3.8983216654742139e-8
2,3, 1, 3, 0,21, 0.00,60.00,Saturday
4973,-0.9985050846818933
4826,1788444.0725702036
4827,1.9900880943168887e-8
2,3, 1, 3, 0,22, 0.00,60.00,Saturday
4973,-0.990359085320966
4826,1761078.313823435
4827,1.944044925039634e-8
2,3, 1, 3, 0,23, 0.00,60.00,Saturday
4973,-0.9838042622708418
4826,1747562.6162985215
4827,3.519744495861232e-8
2,3, 1, 3, 0,24, 0.00,60.00,Saturday
4973,-0.9775426529830404
4826,1680234.5918039468
4827,3.944364834751468e-8
2,4, 1, 4, 0, 1, 0.00,60.00,Sunday
4973,-0.9737768261301458
4826,1815812.6305416544
4827,6.222263213531392
2,4, 1, 4, 0, 2, 0.00,60.00,Sunday
4973,-0.9692968184890743
4826,1815169.1176732472
4827,8.0831341620069e-8
2,4, 1, 4, 0, 3, 0.00,60.00,Sunday
4973,-0.9659688795155838
4826,1795482.2811856452
4827,1.409944161423482e-7
2,4, 1, 4, 0, 4, 0.00,60.00,Sunday
4973,-0.9626773499277794
4826,1781598.1247682169
4827,1.4426859706873074e-8
2,4, 1, 4, 0, 5, 0.00,60.00,Sunday
4973,-0.9590985384972036
4826,1772191.4375448474
4827,5.7195848057745027e-8
2,4, 1, 4, 0, 6, 0.00,60.00,Sunday
4973,-0.9551466782705139
4826,1766267.8733241386
4827,8.221263669838663e-8
2,4, 1, 4, 0, 7, 0.00,60.00,Sunday
4973,-0.9516373146527773
4826,1758999.762370541
4827,5.9395688367658298e-8
2,4, 1, 4, 0, 8, 0.00,60.00,Sunday
4973,-0.9489690106709536
4826,1748054.3565658807
4827,4.778428319696104e-8
2,4, 1, 4, 0, 9, 0.00,60.00,Sunday
4973,-0.9484800819103918
4826,1787881.0727841105
4827,4.220623850414995e-8
2,4, 1, 4, 0,10, 0.00,60.00,Sunday
4973,-0.9489729296678627
4826,1763727.3789441663
4827,8.134293238981627e-8
2,4, 1, 4, 0,11, 0.00,60.00,Sunday
4973,-0.9500599332579747
4826,1797644.4456636068
4827,2.603997018013615e-8
2,4, 1, 4, 0,12, 0.00,60.00,Sunday
4973,-0.9533382547167911
4826,1769209.069266451
4827,1.61662683240138e-8
2,4, 1, 4, 0,13, 0.00,60.00,Sunday
4973,-0.9553572881699212
4826,1733455.560445585
4827,1.4784973245696165e-8
2,4, 1, 4, 0,14, 0.00,60.00,Sunday
4973,-0.9563843062719015
4826,1683303.4653136428
4827,0.0
2,4, 1, 4, 0,15, 0.00,60.00,Sunday
4973,-0.9539079306430583
4826,1578729.6210343056
4827,0.0
2,4, 1, 4, 0,16, 0.00,60.00,Sunday
4973,-0.9462207405994874
4826,1526547.2470642909
4827,4.7629100663471038e-8
2,4, 1, 4, 0,17, 0.00,60.00,Sunday
4973,-0.9379318809203422
4826,1559464.4259808916
4827,4.732214620162267e-8
2,4, 1, 4, 0,18, 0.00,60.00,Sunday
4973,-0.9330533713179086
4826,1567590.6081202543
4827,3.637410372903105e-8
2,4, 1, 4, 0,19, 0.00,60.00,Sunday
4973,-0.9283410991100195
4826,1575003.2822043682
4827,2.1384494175435976e-8
2,4, 1, 4, 0,20, 0.00,60.00,Sunday
4973,-0.9238946170148158
4826,1474851.15320288
4827,7.075300345604774e-8
2,4, 1, 4, 0,21, 0.00,60.00,Sunday
4973,-0.9212206473001179
4826,1438773.847595513
4827,3.581135388230905e-8
2,4, 1, 4, 0,22, 0.00,60.00,Sunday
4973,-0.918805232890823
4826,1432990.168410603
4827,6.302798283286393e-8
2,4, 1, 4, 0,23, 0.00,60.00,Sunday
4973,-0.9165604628688765
4826,1428161.3934326517
4827,4.0313352656085047e-8
2,4, 1, 4, 0,24, 0.00,60.00,Sunday
4973,-0.9140979697581693
4826,1361648.443286988
4827,6.067466529202648e-8
2,5, 1, 5, 0, 1, 0.00,60.00,Monday
4973,-0.9138503576692366
4826,1493519.3422444286
4827,0.5600141470335984
2,5, 1, 5, 0, 2, 0.00,60.00,Monday
4973,-0.9128992973691166
4826,1488666.7681901935
4827,1.2994405551580713e-8
2,5, 1, 5, 0, 3, 0.00,60.00,Monday
4973,-0.9128926174717887
4826,1503048.1064982403
4827,4.292246558179613e-8
2,5, 1, 5, 0, 4, 0.00,60.00,Monday
4973,-0.9146394273621668
4826,1519977.1221395909
4827,7.975700100359973e-8
2,5, 1, 5, 0, 5, 0.00,60.00,Monday
4973,-0.9175851481808784
4826,1531202.951840538
4827,4.7475623432546857e-8
2,5, 1, 5, 0, 6, 0.00,60.00,Monday
4973,-0.9201401299425772
4826,1543294.4992128327
4827,1.9184653865522706e-8
2,5, 1, 5, 0, 7, 0.00,60.00,Monday
4973,-0.9225007017065553
4826,1556015.0469537788
4827,4.2871306504821408e-8
2,5, 1, 5, 0, 8, 0.00,60.00,Monday
4973,-1.4287308232463239
4826,0.0
4827,0.0
2,5, 1, 5, 0, 9, 0.00,60.00,Monday
4973,-1.708520171757939
4826,0.0
4827,0.0
2,5, 1, 5, 0,10, 0.00,60.00,Monday
4973,-1.730278362404949
4826,0.0
4827,0.0
2,5, 1, 5, 0,11, 0.00,60.00,Monday
4973,-1.7430083786806097
4826,0.0
4827,0.0
2,5, 1, 5, 0,12, 0.00,60.00,Monday
4973,-1.7532764811015418
4826,0.0
4827,0.0
2,5, 1, 5, 0,13, 0.00,60.00,Monday
4973,-1.758916163475405
4826,0.0
4827,0.0
2,5, 1, 5, 0,14, 0.00,60.00,Monday
4973,-1.7574803398459634
4826,0.0
4827,0.0
2,5, 1, 5, 0,15, 0.00,60.00,Monday
4973,-1.7535613069719567
4826,0.0
4827,0.0
2,5, 1, 5, 0,16, 0.00,60.00,Monday
4973,-1.7466952338162523
4826,0.0
4827,0.0
2,5, 1, 5, 0,17, 0.00,60.00,Monday
4973,-1.743684490099856
4826,0.0
4827,0.0
2,5, 1, 5, 0,18, 0.00,60.00,Monday
4973,-1.7420758745527155
4826,0.0
4827,0.0
2,5, 1, 5, 0,19, 0.00,60.00,Monday
4973,-1.7423448589641
4826,0.0
4827,0.0
2,5, 1, 5, 0,20, 0.00,60.00,Monday
4973,-1.734077168441886
4826,0.0
4827,0.0
2,5, 1, 5, 0,21, 0.00,60.00,Monday
4973,-1.7477547714045479
4826,0.0
4827,0.0
2,5, 1, 5, 0,22, 0.00,60.00,Monday
4973,-1.2121666274673842
4826,2662130.3233330876
4827,5.902052180317696e-8
2,5, 1, 5, 0,23, 0.00,60.00,Monday
4973,-1.0250180190232917
4826,1817798.8304281682
4827,5.5558757594553757e-8
2,5, 1, 5, 0,24, 0.00,60.00,Monday
4973,-1.0128417396843035
4826,1706720.6291133157
4827,2.844444679794833e-8
2,6, 1, 6, 0, 1, 0.00,60.00,Tuesday
4973,-1.0035169857136848
4826,1891724.0453333024
4827,5.535748669267377
2,6, 1, 6, 0, 2, 0.00,60.00,Tuesday
4973,-0.9960099136904723
4826,1890079.148234105
4827,2.7216628950554879e-8
2,6, 1, 6, 0, 3, 0.00,60.00,Tuesday
4973,-0.9881647416166105
4826,1847535.1658363795
4827,4.1796965888352136e-8
2,6, 1, 6, 0, 4, 0.00,60.00,Tuesday
4973,-0.9805677333503732
4826,1817018.9444828062
4827,3.1718627724330874e-9
2,6, 1, 6, 0, 5, 0.00,60.00,Tuesday
4973,-0.9735105563541638
4826,1802810.174461132
4827,3.504396772768814e-8
2,6, 1, 6, 0, 6, 0.00,60.00,Tuesday
4973,-0.9671159416774244
4826,1786380.8540491109
4827,4.169464773440268e-8
2,6, 1, 6, 0, 7, 0.00,60.00,Tuesday
4973,-0.9617176391587365
4826,1771569.673985513
4827,1.6422063708887437e-8
2,6, 1, 6, 0, 8, 0.00,60.00,Tuesday
4973,-1.468082958154924
4826,0.0
4827,0.0
2,6, 1, 6, 0, 9, 0.00,60.00,Tuesday
4973,-1.7591978898079615
4826,0.0
4827,0.0
2,6, 1, 6, 0,10, 0.00,60.00,Tuesday
4973,-1.765277464303783
4826,0.0
4827,0.0
2,6, 1, 6, 0,11, 0.00,60.00,Tuesday
4973,-1.7542024957109713
4826,0.0
4827,0.0
2,6, 1, 6, 0,12, 0.00,60.00,Tuesday
4973,-1.7396914702766813
4826,0.0
4827,0.0
2,6, 1, 6, 0,13, 0.00,60.00,Tuesday
4973,-1.7177793320270214
4826,0.0
4827,0.0
2,6, 1, 6, 0,14, 0.00,60.00,Tuesday
4973,-1.6854216689880169
4826,0.0
4827,0.0
2,6, 1, 6, 0,15, 0.00,60.00,Tuesday
4973,-1.6445288750191723
4826,0.0
4827,0.0
2,6, 1, 6, 0,16, 0.00,60.00,Tuesday
4973,-1.58885394256337
4826,0.0
4827,0.0
2,6, 1, 6, 0,17, 0.00,60.00,Tuesday
4973,-1.5510088528337259
4826,0.0
4827,0.0
2,6, 1, 6, 0,18, 0.00,60.00,Tuesday
4973,-1.5636751375674408
4826,0.0
4827,0.0
2,6, 1, 6, 0,19, 0.00,60.00,Tuesday
4973,-1.5953420080678616
4826,0.0
4827,0.0
2,6, 1, 6, 0,20, 0.00,60.00,Tuesday
4973,-1.6127632069207123
4826,0.0
4827,0.0
2,6, 1, 6, 0,21, 0.00,60.00,Tuesday
4973,-1.6418765090057133
4826,0.0
4827,0.0
2,6, 1, 6, 0,22, 0.00,60.00,Tuesday
4973,-1.1608127560681907
4826,2448623.9110575278
4827,5.4996007747831757e-8
2,6, 1, 6, 0,23, 0.00,60.00,Tuesday
4973,-0.9928915666962068
4826,1733297.7163205085
4827,4.7475623432546857e-8
2,6, 1, 6, 0,24, 0.00,60.00,Tuesday
4973,-0.9821320041653676
4826,1633881.954948037
4827,1.9184653865522706e-8
2,7, 1, 7, 0, 1, 0.00,60.00,Wednesday
4973,-0.976995085960535
4826,1828495.2337304622
4827,5.630933433816868e-8
2,7, 1, 7, 0, 2, 0.00,60.00,Wednesday
4973,-0.974243334146281
4826,1843116.2800180938
4827,5.2949644668842669e-8
2,7, 1, 7, 0, 3, 0.00,60.00,Wednesday
4973,-0.9735644402609607
4826,1871677.2231422535
4827,0.0
2,7, 1, 7, 0, 4, 0.00,60.00,Wednesday
4973,-0.9747477743311609
4826,1916685.0711292765
4827,1.5194245861493983e-7
2,7, 1, 7, 0, 5, 0.00,60.00,Wednesday
4973,-0.9779159979279152
4826,1976427.1140928029
4827,5.678657544194721e-8
2,7, 1, 7, 0, 6, 0.00,60.00,Wednesday
4973,-0.9827735944475042
4826,2033250.2429953418
4827,7.9705841926625e-8
2,7, 1, 7, 0, 7, 0.00,60.00,Wednesday
4973,-0.9879114368162505
4826,2080126.6455010994
4827,2.8342128643998877e-8
2,7, 1, 7, 0, 8, 0.00,60.00,Wednesday
4973,-1.6246939749905456
4826,0.0
4827,0.0
2,7, 1, 7, 0, 9, 0.00,60.00,Wednesday
4973,-1.9695059755814524
4826,0.0
4827,0.0
2,7, 1, 7, 0,10, 0.00,60.00,Wednesday
4973,-1.9977753825022769
4826,0.0
4827,0.0
2,7, 1, 7, 0,11, 0.00,60.00,Wednesday
4973,-2.004115120674708
4826,0.0
4827,0.0
2,7, 1, 7, 0,12, 0.00,60.00,Wednesday
4973,-1.9878582270239212
4826,0.0
4827,0.0
2,7, 1, 7, 0,13, 0.00,60.00,Wednesday
4973,-1.9453094209998008
4826,0.0
4827,0.0
2,7, 1, 7, 0,14, 0.00,60.00,Wednesday
4973,-1.8737784643086335
4826,0.0
4827,0.0
2,7, 1, 7, 0,15, 0.00,60.00,Wednesday
4973,-1.77698936816424
4826,0.0
4827,0.0
2,7, 1, 7, 0,16, 0.00,60.00,Wednesday
4973,-1.655026500561679
4826,0.0
4827,0.0
2,7, 1, 7, 0,17, 0.00,60.00,Wednesday
4973,-1.5739549504646995
4826,0.0
4827,0.0
2,7, 1, 7, 0,18, 0.00,60.00,Wednesday
4973,-1.587558027359635
4826,0.0
4827,0.0
2,7, 1, 7, 0,19, 0.00,60.00,Wednesday
4973,-1.615797653320885
4826,0.0
4827,0.0
2,7, 1, 7, 0,20, 0.00,60.00,Wednesday
4973,-1.633715744322338
4826,0.0
4827,0.0
2,7, 1, 7, 0,21, 0.00,60.00,Wednesday
4973,-1.6566665989268009
4826,0.0
4827,0.0
2,7, 1, 7, 0,22, 0.00,60.00,Wednesday
4973,-1.1909440178231599
4826,2403289.660393214
4827,5.063384378445335e-8
2,7, 1, 7, 0,23, 0.00,60.00,Wednesday
4973,-1.0307472238876592
4826,1759649.1936070554
4827,3.877858034684323e-8
2,7, 1, 7, 0,24, 0.00,60.00,Wednesday
4973,-1.0191178272512438
4826,1662540.5492204368
4827,5.0238213589182126e-8
2,8, 1, 8, 0, 1, 0.00,60.00,Thursday
4973,-1.0126130837171513
4826,1857368.3427576675
4827,3.671122892858246e-8
2,8, 1, 8, 0, 2, 0.00,60.00,Thursday
4973,-1.0069723801099023
4826,1861204.2817402399
4827,1.1152678780490533e-8
2,8, 1, 8, 0, 3, 0.00,60.00,Thursday
4973,-1.0019688508466463
4826,1879113.6788466257
4827,2.9672264645341785e-8
2,8, 1, 8, 0, 4, 0.00,60.00,Thursday
4973,-0.9977617288995838
4826,1895010.0960297394
4827,2.956994649139233e-8
2,8, 1, 8, 0, 5, 0.00,60.00,Thursday
4973,-0.9940201804860709
4826,1900126.9733032385
4827,3.8266989577095958e-8
2,8, 1, 8, 0, 6, 0.00,60.00,Thursday
4973,-0.9902423464201693
4826,1904461.8545429568
4827,4.092726157978177e-9
2,8, 1, 8, 0, 7, 0.00,60.00,Thursday
4973,-0.9874275122940964
4826,1899804.6867200528
4827,4.553157850750722e-8
2,8, 1, 8, 0, 8, 0.00,60.00,Thursday
4973,-1.5068487706698684
4826,0.0
4827,0.0
2,8, 1, 8, 0, 9, 0.00,60.00,Thursday
4973,-1.8121123229347487
4826,0.0
4827,0.0
2,8, 1, 8, 0,10, 0.00,60.00,Thursday
4973,-1.8206587500838794
4826,0.0
4827,0.0
2,8, 1, 8, 0,11, 0.00,60.00,Thursday
4973,-1.8148156073516333
4826,0.0
4827,0.0
2,8, 1, 8, 0,12, 0.00,60.00,Thursday
4973,-1.797071733707552
4826,0.0
4827,0.0
2,8, 1, 8, 0,13, 0.00,60.00,Thursday
4973,-1.77756607141252
4826,0.0
4827,0.0
2,8, 1, 8, 0,14, 0.00,60.00,Thursday
4973,-1.7562984187678246
4826,0.0
4827,0.0
2,8, 1, 8, 0,15, 0.00,60.00,Thursday
4973,-1.734610800280005
4826,0.0
4827,0.0
2,8, 1, 8, 0,16, 0.00,60.00,Thursday
4973,-1.7153389700048325
4826,0.0
4827,0.0
2,8, 1, 8, 0,17, 0.00,60.00,Thursday
4973,-1.6983074152581668
4826,0.0
4827,0.0
2,8, 1, 8, 0,18, 0.00,60.00,Thursday
4973,-1.696393813836408
4826,0.0
4827,0.0
2,8, 1, 8, 0,19, 0.00,60.00,Thursday
4973,-1.710321176977625
4826,0.0
4827,0.0
2,8, 1, 8, 0,20, 0.00,60.00,Thursday
4973,-1.721851029796908
4826,0.0
4827,0.0
2,8, 1, 8, 0,21, 0.00,60.00,Thursday
4973,-1.7330334428387638
4826,0.0
4827,0.0
2,8, 1, 8, 0,22, 0.00,60.00,Thursday
4973,-1.2117832529300992
4826,2586301.3066820299
4827,9.977725312637631e-9
2,8, 1, 8, 0,23, 0.00,60.00,Thursday
4973,-1.0302092477313132
4826,1805432.6203917235
4827,4.333173819759395e-8
2,8, 1, 8, 0,24, 0.00,60.00,Thursday
4973,-1.01385317977241
4826,1706219.607916842
4827,1.9184653865522706e-8
2,9, 1, 9, 0, 1, 0.00,60.00,Friday
4973,-1.0058217400344834
4826,1913303.4340415127
4827,5.859078555658925e-8
2,9, 1, 9, 0, 2, 0.00,60.00,Friday
4973,-1.0016953796456208
4826,1933989.2487182506
4827,1.61662683240138e-8
2,9, 1, 9, 0, 3, 0.00,60.00,Friday
4973,-0.998479006156558
4826,1934814.4322731714
4827,7.8580342233181e-8
2,9, 1, 9, 0, 4, 0.00,60.00,Friday
4973,-0.9946933134334004
4826,1920129.7142123173
4827,8.727738531888463e-8
2,9, 1, 9, 0, 5, 0.00,60.00,Friday
4973,-0.9901456455334354
4826,1904566.0058666636
4827,1.1838210411951877e-7
2,9, 1, 9, 0, 6, 0.00,60.00,Friday
4973,-0.9855445478571636
4826,1891422.800055105
4827,5.177298589842394e-8
2,9, 1, 9, 0, 7, 0.00,60.00,Friday
4973,-0.982014975308865
4826,1879815.2318735794
4827,4.297362465877086e-8
2,9, 1, 9, 0, 8, 0.00,60.00,Friday
4973,-1.4926060386211524
4826,0.0
4827,0.0
2,9, 1, 9, 0, 9, 0.00,60.00,Friday
4973,-1.8019041252129796
4826,0.0
4827,0.0
2,9, 1, 9, 0,10, 0.00,60.00,Friday
4973,-1.826725024497249
4826,0.0
4827,0.0
2,9, 1, 9, 0,11, 0.00,60.00,Friday
4973,-1.8312367943659276
4826,0.0
4827,0.0
2,9, 1, 9, 0,12, 0.00,60.00,Friday
4973,-1.8304988006578478
4826,0.0
4827,0.0
2,9, 1, 9, 0,13, 0.00,60.00,Friday
4973,-1.828948526962514
4826,0.0
4827,0.0
2,9, 1, 9, 0,14, 0.00,60.00,Friday
4973,-1.822295086674813
4826,0.0
4827,0.0
2,9, 1, 9, 0,15, 0.00,60.00,Friday
4973,-1.819317716015335
4826,0.0
4827,0.0
2,9, 1, 9, 0,16, 0.00,60.00,Friday
4973,-1.8157667097188144
4826,0.0
4827,0.0
2,9, 1, 9, 0,17, 0.00,60.00,Friday
4973,-1.8183446126108605
4826,0.0
4827,0.0
2,9, 1, 9, 0,18, 0.00,60.00,Friday
4973,-1.8267467179137776
4826,0.0
4827,0.0
2,9, 1, 9, 0,19, 0.00,60.00,Friday
4973,-1.832483666287368
4826,0.0
4827,0.0
2,9, 1, 9, 0,20, 0.00,60.00,Friday
4973,-1.8220959457974049
4826,0.0
4827,0.0
2,9, 1, 9, 0,21, 0.00,60.00,Friday
4973,-1.8195342352029314
4826,0.0
4827,0.0
2,9, 1, 9, 0,22, 0.00,60.00,Friday
4973,-1.2483982663452805
4826,2845651.988169788
4827,5.940250957792159e-8
2,9, 1, 9, 0,23, 0.00,60.00,Friday
4973,-1.0540509476986678
4826,1960412.4343598865
4827,9.617906471248716e-9
2,9, 1, 9, 0,24, 0.00,60.00,Friday
4973,-1.0395251102690624
4826,1816391.1489941008
4827,5.474021236295812e-9
2,10, 1,10, 0, 1, 0.00,60.00,Saturday
4973,-1.0308062020566929
4826,1968839.3902252508
4827,2.142785883879534
2,10, 1,10, 0, 2, 0.00,60.00,Saturday
4973,-1.023958526685994
4826,1940810.5235858276
4827,7.152038961066865e-8
2,10, 1,10, 0, 3, 0.00,60.00,Saturday
4973,-1.0179920330602848
4826,1903291.4437515976
4827,6.077698344597593e-8
2,10, 1,10, 0, 4, 0.00,60.00,Saturday
4973,-1.0120468398161314
4826,1874262.903112817
4827,3.693685357575305e-8
2,10, 1,10, 0, 5, 0.00,60.00,Saturday
4973,-1.006024015401774
4826,1855893.6958151197
4827,5.402398528531194e-8
2,10, 1,10, 0, 6, 0.00,60.00,Saturday
4973,-1.0003705377684003
4826,1844538.570934898
4827,5.1670667744474488e-8
2,10, 1,10, 0, 7, 0.00,60.00,Saturday
4973,-0.9956837910057838
4826,1832917.8723608363
4827,6.88089585310081e-8
2,10, 1,10, 0, 8, 0.00,60.00,Saturday
4973,-0.9919232539040871
4826,1815123.1894794708
4827,7.878156793594826e-8
2,10, 1,10, 0, 9, 0.00,60.00,Saturday
4973,-0.9892746936986792
4826,1864915.3164273212
4827,3.877858034684323e-8
2,10, 1,10, 0,10, 0.00,60.00,Saturday
4973,-0.9883881443403624
4826,1847116.034650824
4827,8.615188562544063e-8
2,10, 1,10, 0,11, 0.00,60.00,Saturday
4973,-0.9886074997243746
4826,1868665.5826178459
4827,3.9187852962641048e-8
2,10, 1,10, 0,12, 0.00,60.00,Saturday
4973,-0.9900115727565162
4826,1822210.774054035
4827,5.7349325288669209e-8
2,10, 1,10, 0,13, 0.00,60.00,Saturday
4973,-0.9896283907832105
4826,1758008.3194645569
4827,2.793285602820106e-8
2,10, 1,10, 0,14, 0.00,60.00,Saturday
4973,-0.9866505676589257
4826,1677369.8128231886
4827,2.716546987358015e-8
2,10, 1,10, 0,15, 0.00,60.00,Saturday
4973,-0.97819844718707
4826,1522213.9554604823
4827,9.771383702172898e-9
2,10, 1,10, 0,16, 0.00,60.00,Saturday
4973,-0.9623582771598116
4826,1428555.576845113
4827,5.576339390245266e-8
2,10, 1,10, 0,17, 0.00,60.00,Saturday
4973,-0.9457709333784603
4826,1452802.5365193275
4827,2.3584334485349247e-8
2,10, 1,10, 0,18, 0.00,60.00,Saturday
4973,-0.9364094568752962
4826,1469102.3080845148
4827,4.1029579733731228e-8
2,10, 1,10, 0,19, 0.00,60.00,Saturday
4973,-0.9317489093858855
4826,1493546.3404942218
4827,4.466187419893686e-8
2,10, 1,10, 0,20, 0.00,60.00,Saturday
4973,-0.9292197338139265
4826,1400327.5395782204
4827,6.576499345101183e-8
2,10, 1,10, 0,21, 0.00,60.00,Saturday
4973,-0.9271891809017411
4826,1372844.545642083
4827,4.716866897069849e-8
2,10, 1,10, 0,22, 0.00,60.00,Saturday
4973,-0.9218291837845881
4826,1356918.2900173108
4827,4.113189788768068e-8
2,10, 1,10, 0,23, 0.00,60.00,Saturday
4973,-0.9143719245445979
4826,1352971.4616582767
4827,2.7114310796605424e-8
2,10, 1,10, 0,24, 0.00,60.00,Saturday
4973,-0.907383699985777
4826,1327187.660298639
4827,5.8116711443290117e-8
2,11, 1,11, 0, 1, 0.00,60.00,Sunday
4973,-0.9072184229565102
4826,1522622.5785993424
4827,5.783452447108825e-8
2,11, 1,11, 0, 2, 0.00,60.00,Sunday
4973,-0.911416432653268
4826,1583126.180048964
4827,5.0749804358929398e-8
2,11, 1,11, 0, 3, 0.00,60.00,Sunday
4973,-0.9172424700516342
4826,1614089.831155219
4827,1.1613110473263078e-8
2,11, 1,11, 0, 4, 0.00,60.00,Sunday
4973,-0.9202941702265275
4826,1623916.2576344363
4827,4.09784206567565e-8
2,11, 1,11, 0, 5, 0.00,60.00,Sunday
4973,-0.9211366657506387
4826,1636461.964902685
4827,8.088250069704373e-8
2,11, 1,11, 0, 6, 0.00,60.00,Sunday
4973,-0.9227738972585964
4826,1653839.021160873
4827,3.6988012652727778e-8
2,11, 1,11, 0, 7, 0.00,60.00,Sunday
4973,-0.9251624306435969
4826,1667432.958996933
4827,2.3737811716273428e-8
2,11, 1,11, 0, 8, 0.00,60.00,Sunday
4973,-0.926265900266529
4826,1649613.9537320627
4827,5.967535798845347e-8
2,11, 1,11, 0, 9, 0.00,60.00,Sunday
4973,-0.9252376960946003
4826,1631138.6845425666
4827,2.9416469260468149e-8
2,11, 1,11, 0,10, 0.00,60.00,Sunday
4973,-0.9208019379389223
4826,1558471.709840151
4827,4.706635081674904e-9
2,11, 1,11, 0,11, 0.00,60.00,Sunday
4973,-0.9147131896852563
4826,1562432.3090382794
4827,5.6070348364301029e-8
2,11, 1,11, 0,12, 0.00,60.00,Sunday
4973,-0.9097702228560958
4826,1526026.8568906803
4827,5.37681899004383e-8
2,11, 1,11, 0,13, 0.00,60.00,Sunday
4973,-0.9062386137365547
4826,1496156.2592871546
4827,5.975380190648139e-8
2,11, 1,11, 0,14, 0.00,60.00,Sunday
4973,-0.9031491009103528
4826,1476240.8071793917
4827,4.077378434885759e-8
2,11, 1,11, 0,15, 0.00,60.00,Sunday
4973,-0.9001515792516524
4826,1387765.131120924
4827,1.2892087397631258e-8
2,11, 1,11, 0,16, 0.00,60.00,Sunday
4973,-0.8963971055915376
4826,1357546.4834900518
4827,3.299760464869905e-8
2,11, 1,11, 0,17, 0.00,60.00,Sunday
4973,-0.8943288286059102
4826,1395893.870710399
4827,2.1793766791233794e-8
2,11, 1,11, 0,18, 0.00,60.00,Sunday
4973,-0.8932800043194871
4826,1382649.0973542978
4827,2.936531018349342e-8
2,11, 1,11, 0,19, 0.00,60.00,Sunday
4973,-0.890354064723873
4826,1356877.737087055
4827,6.46650732960552e-8
2,11, 1,11, 0,20, 0.00,60.00,Sunday
4973,-0.8874463634612078
4826,1214917.8823719994
4827,4.000639819423668e-8
2,11, 1,11, 0,21, 0.00,60.00,Sunday
4973,-0.8843951122088791
4826,1156146.99197942
4827,2.5272584025515245e-8
2,11, 1,11, 0,22, 0.00,60.00,Sunday
4973,-0.8814311281470765
4826,1137748.1493618543
4827,1.4017587091075257e-8
2,11, 1,11, 0,23, 0.00,60.00,Sunday
4973,-0.8802838183360768
4826,1124793.2337326064
4827,2.6398083718959243e-8
2,11, 1,11, 0,24, 0.00,60.00,Sunday
4973,-0.8794184962972658
4826,1062635.2632788586
4827,5.8832938520936298e-8
2,12, 1,12, 0, 1, 0.00,60.00,Monday
4973,-0.8803388522748039
4826,1204648.3525972185
4827,2.6847857270695387e-8
2,12, 1,12, 0, 2, 0.00,60.00,Monday
4973,-0.8813802064178684
4826,1215129.4376849917
4827,5.346123543858994e-8
2,12, 1,12, 0, 3, 0.00,60.00,Monday
4973,-0.8828927324475306
4826,1244381.26879354
4827,7.0599526225123558e-9
2,12, 1,12, 0, 4, 0.00,60.00,Monday
4973,-0.8839961991070428
4826,1271306.7909793969
4827,2.8546764951897786e-8
2,12, 1,12, 0, 5, 0.00,60.00,Monday
4973,-0.883578491562584
4826,1295867.425055997
4827,5.0749804358929398e-8
2,12, 1,12, 0, 6, 0.00,60.00,Monday
4973,-0.8816979024100619
4826,1318954.1609258806
4827,6.446043698815629e-8
2,12, 1,12, 0, 7, 0.00,60.00,Monday
4973,-0.8787420595131539
4826,1334454.9499746962
4827,7.264588930411264e-9
2,12, 1,12, 0, 8, 0.00,60.00,Monday
4973,-1.3266447869372238
4826,0.0
4827,0.0
2,12, 1,12, 0, 9, 0.00,60.00,Monday
4973,-1.570959895601533
4826,0.0
4827,0.0
2,12, 1,12, 0,10, 0.00,60.00,Monday
4973,-1.5754329276463693
4826,0.0
4827,0.0
2,12, 1,12, 0,11, 0.00,60.00,Monday
4973,-1.5787157482671266
4826,0.0
4827,0.0
2,12, 1,12, 0,12, 0.00,60.00,Monday
4973,-1.5866372975730055
4826,0.0
4827,0.0
2,12, 1,12, 0,13, 0.00,60.00,Monday
4973,-1.5915455764834022
4826,0.0
4827,0.0
2,12, 1,12, 0,14, 0.00,60.00,Monday
4973,-1.5992136235484285
4826,0.0
4827,0.0
2,12, 1,12, 0,15, 0.00,60.00,Monday
4973,-1.5994963421593585
4826,0.0
4827,0.0
2,12, 1,12, 0,16, 0.00,60.00,Monday
4973,-1.5923032038292256
4826,0.0
4827,0.0
2,12, 1,12, 0,17, 0.00,60.00,Monday
4973,-1.5819399232876084
4826,0.0
4827,0.0
2,12, 1,12, 0,18, 0.00,60.00,Monday
4973,-1.5724215407779807
4826,0.0
4827,0.0
2,12, 1,12, 0,19, 0.00,60.00,Monday
4973,-1.5703468499835396
4826,0.0
4827,0.0
2,12, 1,12, 0,20, 0.00,60.00,Monday
4973,-1.5639024349318234
4826,0.0
4827,0.0
2,12, 1,12, 0,21, 0.00,60.00,Monday
4973,-1.5666745405345093
4826,0.0
4827,0.0
2,12, 1,12, 0,22, 0.00,60.00,Monday
4973,-1.1056226716257598
4826,2117602.0992267958
4827,3.987679519923404e-8
2,12, 1,12, 0,23, 0.00,60.00,Monday
4973,-0.9497113036268986
4826,1416678.1903236393
4827,1.4580336937797256e-8
2,12, 1,12, 0,24, 0.00,60.00,Monday
4973,-0.9383300384707176
4826,1302457.5302369567
4827,3.269065018685069e-8
2,13, 1,13, 0, 1, 0.00,60.00,Tuesday
4973,-0.9312904834367994
4826,1477132.825382473
4827,4.5772700437439088
2,13, 1,13, 0, 2, 0.00,60.00,Tuesday
4973,-0.925371929964227
4826,1466301.6887541579
4827,4.092726157978177e-8
2,13, 1,13, 0, 3, 0.00,60.00,Tuesday
4973,-0.9199995176010045
4826,1456975.3817746684
4827,4.461071512196213e-8
2,13, 1,13, 0, 4, 0.00,60.00,Tuesday
4973,-0.9152708184142966
4826,1448841.442244805
4827,0.0
2,13, 1,13, 0, 5, 0.00,60.00,Tuesday
4973,-0.9108505981281064
4826,1446284.942043827
4827,4.297362465877086e-8
2,13, 1,13, 0, 6, 0.00,60.00,Tuesday
4973,-0.9065710687279158
4826,1447937.9922704064
4827,3.92901711165905e-8
2,13, 1,13, 0, 7, 0.00,60.00,Tuesday
4973,-0.9033880711152215
4826,1446744.280822364
4827,1.5859313862165437e-8
2,13, 1,13, 0, 8, 0.00,60.00,Tuesday
4973,-1.3223495378153032
4826,0.0