Program Version,EnergyPlus, Version 8.7.0-78a111df4a, YMD=2019.05.28 05:48
1,5,Environment Title[],Latitude[deg],Longitude[deg],Time Zone[],Elevation[m]
2,6,Day of Simulation[],Month[],Day of Month[],DST Indicator[1=yes 0=no],Hour[],StartMinute[],EndMinute[],DayType
3,3,Cumulative Day of Simulation[],Month[],Day of Month[],DST Indicator[1=yes 0=no],DayType  ! When Daily Report Variables Requested
4,2,Cumulative Days of Simulation[],Month[]  ! When Monthly Report Variables Requested
5,1,Cumulative Days of Simulation[] ! When Run Period Report Variables Requested
4826,1,BEDROOM2.2,Zone Ideal Loads Zone Total Heating Energy [J] !Hourly
4827,1,BEDROOM2.2,Zone Ideal Loads Zone Total Cooling Energy [J] !Hourly
4973,1,BEDROOM2.2,Zone Thermal Comfort Fanger Model PMV [] !Hourly
End of Data Dictionary
1,RUNPERIOD,  29.58, 106.47,   8.00, 259.10
2,1, 1, 1, 0, 1, 0.00,60.00,Thursday
4973,-1.0511956750523173
4826,2227960.1759823618
4827,6.775415138029282e-8
2,1, 1, 1, 0, 2, 0.00,60.00,Thursday
4973,-1.0436849502771817
4826,2238004.7921271265
4827,2.4863311409717427e-8
2,1, 1, 1, 0, 3, 0.00,60.00,Thursday
4973,-1.0358888213287748
4826,2175433.2087246386
4827,9.085852070711553e-8
2,1, 1, 1, 0, 4, 0.00,60.00,Thursday
4973,-1.0294377741901495
4826,2144866.4993882046
4827,7.2952843765961e-8
2,1, 1, 1, 0, 5, 0.00,60.00,Thursday
4973,-1.025917855453542
4826,2161440.295618757
4827,6.364189175656066e-8
2,1, 1, 1, 0, 6, 0.00,60.00,Thursday
4973,-1.025485054717187
4826,2182885.7539411408
4827,4.4917669583810496e-8
2,1, 1, 1, 0, 7, 0.00,60.00,Thursday
4973,-1.027037809241734
4826,2198770.772981591
4827,7.540847946074791e-8
2,1, 1, 1, 0, 8, 0.00,60.00,Thursday
4973,-1.632732994814633
4826,0.0
4827,0.0
2,1, 1, 1, 0, 9, 0.00,60.00,Thursday
4973,-2.0092905427011025
4826,0.0
4827,0.0
2,1, 1, 1, 0,10, 0.00,60.00,Thursday
4973,-2.046798001042814
4826,0.0
4827,0.0
2,1, 1, 1, 0,11, 0.00,60.00,Thursday
4973,-2.053282239234731
4826,0.0
4827,0.0
2,1, 1, 1, 0,12, 0.00,60.00,Thursday
4973,-2.0491010867115717
4826,0.0
4827,0.0
2,1, 1, 1, 0,13, 0.00,60.00,Thursday
4973,-2.0326082584031486
4826,0.0
4827,0.0
2,1, 1, 1, 0,14, 0.00,60.00,Thursday
4973,-1.998359554533588
4826,0.0
4827,0.0
2,1, 1, 1, 0,15, 0.00,60.00,Thursday
4973,-1.9542903599320294
4826,0.0
4827,0.0
2,1, 1, 1, 0,16, 0.00,60.00,Thursday
4973,-1.8969196459725298
4826,0.0
4827,0.0
2,1, 1, 1, 0,17, 0.00,60.00,Thursday
4973,-1.8304752120184456
4826,0.0
4827,0.0
2,1, 1, 1, 0,18, 0.00,60.00,Thursday
4973,-1.7723693791944944
4826,0.0
4827,0.0
2,1, 1, 1, 0,19, 0.00,60.00,Thursday
4973,-1.7253416249479415
4826,0.0
4827,0.0
2,1, 1, 1, 0,20, 0.00,60.00,Thursday
4973,-1.6984381933702242
4826,0.0
4827,0.0
2,1, 1, 1, 0,21, 0.00,60.00,Thursday
4973,-1.7368116598407524
4826,0.0
4827,0.0
2,1, 1, 1, 0,22, 0.00,60.00,Thursday
4973,-1.2368173768702134
4826,2841752.404852759
4827,3.549757821019739e-8
2,1, 1, 1, 0,23, 0.00,60.00,Thursday
4973,-1.061434534009246
4826,2113587.914510338
4827,7.008793545537628e-8
2,1, 1, 1, 0,24, 0.00,60.00,Thursday
4973,-1.057343694747113
4826,2014306.2111012967
4827,3.877858034684323e-8
2,2, 1, 2, 0, 1, 0.00,60.00,Friday
4973,-1.0547618539164879
4826,2206614.707368765
4827,6.695513961445117e-8
2,2, 1, 2, 0, 2, 0.00,60.00,Friday
4973,-1.052666856437688
4826,2203766.9222651554
4827,9.935092748492025e-8
2,2, 1, 2, 0, 3, 0.00,60.00,Friday
4973,-1.0513802750148754
4826,2206209.4800679075
4827,5.085212251287885e-8
2,2, 1, 2, 0, 4, 0.00,60.00,Friday
4973,-1.0480645766693826
4826,2201216.1217708045
4827,7.622702469234355e-8
2,2, 1, 2, 0, 5, 0.00,60.00,Friday
4973,-1.0438564947326117
4826,2188798.974048745
4827,4.461071512196213e-8
2,2, 1, 2, 0, 6, 0.00,60.00,Friday
4973,-1.0395213699293585
4826,2179374.170734746
4827,7.233893484226428e-8
2,2, 1, 2, 0, 7, 0.00,60.00,Friday
4973,-1.0353220800771306
4826,2166023.102270335
4827,3.263949110987596e-8
2,2, 1, 2, 0, 8, 0.00,60.00,Friday
4973,-1.6030167116765957
4826,0.0
4827,0.0
2,2, 1, 2, 0, 9, 0.00,60.00,Friday
4973,-1.922231997543833
4826,0.0
4827,0.0
2,2, 1, 2, 0,10, 0.00,60.00,Friday
4973,-1.9123741223178817
4826,0.0
4827,0.0
2,2, 1, 2, 0,11, 0.00,60.00,Friday
4973,-1.8958350163117164
4826,0.0
4827,0.0
2,2, 1, 2, 0,12, 0.00,60.00,Friday
4973,-1.8838411832380287
4826,0.0
4827,0.0
2,2, 1, 2, 0,13, 0.00,60.00,Friday
4973,-1.8703629566504168
4826,0.0
4827,0.0
2,2, 1, 2, 0,14, 0.00,60.00,Friday
4973,-1.8562406349265235
4826,0.0
4827,0.0
2,2, 1, 2, 0,15, 0.00,60.00,Friday
4973,-1.8312576609510059
4826,0.0
4827,0.0
2,2, 1, 2, 0,16, 0.00,60.00,Friday
4973,-1.7979702651685688
4826,0.0
4827,0.0
2,2, 1, 2, 0,17, 0.00,60.00,Friday
4973,-1.7772602133634275
4826,0.0
4827,0.0
2,2, 1, 2, 0,18, 0.00,60.00,Friday
4973,-1.7988734962100868
4826,0.0
4827,0.0
2,2, 1, 2, 0,19, 0.00,60.00,Friday
4973,-1.839190160789555
4826,0.0
4827,0.0
2,2, 1, 2, 0,20, 0.00,60.00,Friday
4973,-1.8642190735999398
4826,0.0
4827,0.0
2,2, 1, 2, 0,21, 0.00,60.00,Friday
4973,-1.890882758737844
4826,0.0
4827,0.0
2,2, 1, 2, 0,22, 0.00,60.00,Friday
4973,-1.2848788193198393
4826,3117439.420208271
4827,1.0266603567288257e-7
2,2, 1, 2, 0,23, 0.00,60.00,Friday
4973,-1.0702769390287009
4826,2151487.4114747105
4827,7.397602530545555e-8
2,2, 1, 2, 0,24, 0.00,60.00,Friday
4973,-1.0529068081107807
4826,2037079.1400476266
4827,2.6398083718959243e-8
2,3, 1, 3, 0, 1, 0.00,60.00,Saturday
4973,-1.0454008763362777
4826,2240182.0450672276
4827,8.75338008137822e-8
2,3, 1, 3, 0, 2, 0.00,60.00,Saturday
4973,-1.0426859932150797
4826,2272054.4686576595
4827,7.852918315620627e-8
2,3, 1, 3, 0, 3, 0.00,60.00,Saturday
4973,-1.0446065950378814
4826,2282725.123468361
4827,3.4583536034915599e-8
2,3, 1, 3, 0, 4, 0.00,60.00,Saturday
4973,-1.0461476965641268
4826,2278863.44054951
4827,3.888089850079268e-8
2,3, 1, 3, 0, 5, 0.00,60.00,Saturday
4973,-1.046102327712584
4826,2265434.198797136
4827,3.335571818752214e-8
2,3, 1, 3, 0, 6, 0.00,60.00,Saturday
4973,-1.0443421605962096
4826,2236329.7085866706
4827,2.5477220333414153e-8
2,3, 1, 3, 0, 7, 0.00,60.00,Saturday
4973,-1.0407886929411774
4826,2189436.8225335839
4827,8.124061423586682e-8
2,3, 1, 3, 0, 8, 0.00,60.00,Saturday
4973,-1.0352687958901364
4826,2137883.309000007
4827,4.54667770100059e-8
2,3, 1, 3, 0, 9, 0.00,60.00,Saturday
4973,-1.0305350857121126
4826,2138671.095741823
4827,3.796003511524759e-8
2,3, 1, 3, 0,10, 0.00,60.00,Saturday
4973,-1.0257146839771683
4826,2086478.476682759
4827,1.872422217275016e-8
2,3, 1, 3, 0,11, 0.00,60.00,Saturday
4973,-1.0217256530009618
4826,2094580.473600204
4827,3.0388491722987968e-8
2,3, 1, 3, 0,12, 0.00,60.00,Saturday
4973,-1.0184180644069603
4826,2049590.353783734
4827,6.139089236967266e-8
2,3, 1, 3, 0,13, 0.00,60.00,Saturday
4973,-1.014628696157457
4826,2009595.8070416423
4827,2.1793766791233794e-8
2,3, 1, 3, 0,14, 0.00,60.00,Saturday
4973,-1.010654102580196
4826,1973336.6052610148
4827,6.701839083689265e-8
2,3, 1, 3, 0,15, 0.00,60.00,Saturday
4973,-1.0057574669603569
4826,1904254.6810662079
4827,1.1254996934439987e-9
2,3, 1, 3, 0,16, 0.00,60.00,Saturday
4973,-0.999439638993062
4826,1886420.980244446
4827,7.673861546209082e-9
2,3, 1, 3, 0,17, 0.00,60.00,Saturday
4973,-0.9945415905410867
4826,1915806.2836970464
4827,3.888089850079268e-9
2,3, 1, 3, 0,18, 0.00,60.00,Saturday
4973,-0.9900264490445914
4826,1897392.67685251
4827,6.24140739091672e-8
2,3, 1, 3, 0,19, 0.00,60.00,Saturday
4973,-0.9835284496657714
4826,1863937.0185422155
4827,3.673221726785414e-8
2,3, 1, 3, 0,20, 0.00,60.00,Saturday
4973,-0.976321260355577
4826,1722470.03957951
4827,2.4351720639970155e-8
2,3, 1, 3, 0,21, 0.00,60.00,Saturday
4973,-0.968477771216898
4826,1652330.1641231212
4827,2.240767571493052e-8
2,3, 1, 3, 0,22, 0.00,60.00,Saturday
4973,-0.9604993958837863
4826,1625857.7577860365
4827,1.5347723092418165e-8
2,3, 1, 3, 0,23, 0.00,60.00,Saturday
4973,-0.9541404428166641
4826,1613352.4169045534
4827,9.72022462519817e-9
2,3, 1, 3, 0,24, 0.00,60.00,Saturday
4973,-0.9480655801591189
4826,1546984.1054228752
4827,4.5787373892380859e-8
2,4, 1, 4, 0, 1, 0.00,60.00,Sunday
4973,-0.9444691771977614
4826,1683312.4464313696
4827,5.765237776195704
2,4, 1, 4, 0, 2, 0.00,60.00,Sunday
4973,-0.9401494946086628
4826,1683412.4858351332
4827,3.949480742448941e-8
2,4, 1, 4, 0, 3, 0.00,60.00,Sunday
4973,-0.9369837184149231
4826,1664480.8001219677
4827,5.218225851422176e-9
2,4, 1, 4, 0, 4, 0.00,60.00,Sunday
4973,-0.9338298570599075
4826,1651234.8511505784
4827,5.9191052059759389e-8
2,4, 1, 4, 0, 5, 0.00,60.00,Sunday
4973,-0.9303579567262063
4826,1642328.0377326259
4827,1.5501200323342347e-8
2,4, 1, 4, 0, 6, 0.00,60.00,Sunday
4973,-0.9265319456690004
4826,1637079.241220524
4827,6.451159606513102e-8
2,4, 1, 4, 0, 7, 0.00,60.00,Sunday
4973,-0.9231429566101493
4826,1630447.033711899
4827,3.335571818752214e-8
2,4, 1, 4, 0, 8, 0.00,60.00,Sunday
4973,-0.9205384692264758
4826,1619726.873533927
4827,4.165542577538872e-8
2,4, 1, 4, 0, 9, 0.00,60.00,Sunday
4973,-0.9200516442706108
4826,1659508.6244900809
4827,3.540208126651123e-8
2,4, 1, 4, 0,10, 0.00,60.00,Sunday
4973,-0.9202937204300689
4826,1634123.453999104
4827,2.020783540501725e-8
2,4, 1, 4, 0,11, 0.00,60.00,Sunday
4973,-0.9209447456795463
4826,1665929.3755730005
4827,3.171862772433087e-8
2,4, 1, 4, 0,12, 0.00,60.00,Sunday
4973,-0.9237317691325176
4826,1635091.2448014678
4827,6.343725544866175e-8
2,4, 1, 4, 0,13, 0.00,60.00,Sunday
4973,-0.9251700264882219
4826,1596562.1090629476
4827,2.9518787414417603e-8
2,4, 1, 4, 0,14, 0.00,60.00,Sunday
4973,-0.9257871295763379
4826,1544616.3354773785
4827,4.113189788768068e-8
2,4, 1, 4, 0,15, 0.00,60.00,Sunday
4973,-0.9230750677469296
4826,1439341.498063868
4827,3.836930773104541e-8
2,4, 1, 4, 0,16, 0.00,60.00,Sunday
4973,-0.9153581226028453
4826,1387658.5280862046
4827,2.3430857254425065e-8
2,4, 1, 4, 0,17, 0.00,60.00,Sunday
4973,-0.9073057171772549
4826,1422225.3564332089
4827,8.185452315956354e-10
2,4, 1, 4, 0,18, 0.00,60.00,Sunday
4973,-0.9029346005679828
4826,1433049.0656485104
4827,2.092406248266343e-8
2,4, 1, 4, 0,19, 0.00,60.00,Sunday
4973,-0.8988572084109301
4826,1443957.659305614
4827,2.9314151106518694e-8
2,4, 1, 4, 0,20, 0.00,60.00,Sunday
4973,-0.8948634183453381
4826,1346461.9638416109
4827,3.673221726785414e-8
2,4, 1, 4, 0,21, 0.00,60.00,Sunday
4973,-0.8925858367149073
4826,1312664.8794742125
4827,4.4508396968012678e-8
2,4, 1, 4, 0,22, 0.00,60.00,Sunday
4973,-0.8904985048065189
4826,1308856.7652950658
4827,4.79360551253194e-8
2,4, 1, 4, 0,23, 0.00,60.00,Sunday
4973,-0.8884665511239822
4826,1305346.1952377205
4827,5.192646312934812e-8
2,4, 1, 4, 0,24, 0.00,60.00,Sunday
4973,-0.8861960161591292
4826,1240064.9284097267
4827,3.335571818752214e-8
2,5, 1, 5, 0, 1, 0.00,60.00,Monday
4973,-0.8861323292265162
4826,1372951.2939014787
4827,0.5207446393006876
2,5, 1, 5, 0, 2, 0.00,60.00,Monday
4973,-0.8852835269079882
4826,1368585.599728447
4827,7.7454842539737e-8
2,5, 1, 5, 0, 3, 0.00,60.00,Monday
4973,-0.8853931163198997
4826,1383525.6314199668
4827,2.220303940703161e-8
2,5, 1, 5, 0, 4, 0.00,60.00,Monday
4973,-0.8872589571621886
4826,1401049.8754065308
4827,8.27242274681339e-8
2,5, 1, 5, 0, 5, 0.00,60.00,Monday
4973,-0.8903009566481892
4826,1412743.5615386964
4827,4.8908077587839219e-8
2,5, 1, 5, 0, 6, 0.00,60.00,Monday
4973,-0.8929412619019692
4826,1425345.664941026
4827,2.4658675101818518e-8
2,5, 1, 5, 0, 7, 0.00,60.00,Monday
4973,-0.8953728437723852
4826,1438531.821606547
4827,1.2073542166035623e-8
2,5, 1, 5, 0, 8, 0.00,60.00,Monday
4973,-1.3883194637008798
4826,0.0
4827,0.0
2,5, 1, 5, 0, 9, 0.00,60.00,Monday
4973,-1.6552375652860008
4826,0.0
4827,0.0
2,5, 1, 5, 0,10, 0.00,60.00,Monday
4973,-1.6756091027743896
4826,0.0
4827,0.0
2,5, 1, 5, 0,11, 0.00,60.00,Monday
4973,-1.6869146010959349
4826,0.0
4827,0.0
2,5, 1, 5, 0,12, 0.00,60.00,Monday
4973,-1.6956692080538006
4826,0.0
4827,0.0
2,5, 1, 5, 0,13, 0.00,60.00,Monday
4973,-1.6997886764565387
4826,0.0
4827,0.0
2,5, 1, 5, 0,14, 0.00,60.00,Monday
4973,-1.6969066603758494
4826,0.0
4827,0.0
2,5, 1, 5, 0,15, 0.00,60.00,Monday
4973,-1.6917387492419163
4826,0.0
4827,0.0
2,5, 1, 5, 0,16, 0.00,60.00,Monday
4973,-1.6840501024496915
4826,0.0
4827,0.0
2,5, 1, 5, 0,17, 0.00,60.00,Monday
4973,-1.6807696308605585
4826,0.0
4827,0.0
2,5, 1, 5, 0,18, 0.00,60.00,Monday
4973,-1.6792262554990623
4826,0.0
4827,0.0
2,5, 1, 5, 0,19, 0.00,60.00,Monday
4973,-1.6799144337751293
4826,0.0
4827,0.0
2,5, 1, 5, 0,20, 0.00,60.00,Monday
4973,-1.6721348520139586
4826,0.0
4827,0.0
2,5, 1, 5, 0,21, 0.00,60.00,Monday
4973,-1.686348380630415
4826,0.0
4827,0.0
2,5, 1, 5, 0,22, 0.00,60.00,Monday
4973,-1.1734270739968403
4826,2482837.1418630096
4827,1.9406343199079857e-8
2,5, 1, 5, 0,23, 0.00,60.00,Monday
4973,-0.9941731819157259
4826,1675516.554259766
4827,5.069864528195467e-8
2,5, 1, 5, 0,24, 0.00,60.00,Monday
4973,-0.9824975669993852
4826,1568365.7252399727
4827,2.9672264645341785e-8
2,6, 1, 6, 0, 1, 0.00,60.00,Tuesday
4973,-0.9735576383165343
4826,1756099.7660803043
4827,5.13332860453886
2,6, 1, 6, 0, 2, 0.00,60.00,Tuesday
4973,-0.9663403650094772
4826,1756245.2749711369
4827,3.8676262192893776e-8
2,6, 1, 6, 0, 3, 0.00,60.00,Tuesday
4973,-0.9587047087712248
4826,1714949.5107323938
4827,1.652438186283689e-8
2,6, 1, 6, 0, 4, 0.00,60.00,Tuesday
4973,-0.9513242933403479
4826,1685692.893028483
4827,4.3945647121290679e-8
2,6, 1, 6, 0, 5, 0.00,60.00,Tuesday
4973,-0.9444730047664735
4826,1672655.269282011
4827,1.6780177247710527e-8
2,6, 1, 6, 0, 6, 0.00,60.00,Tuesday
4973,-0.9382280179432492
4826,1656962.5754785715
4827,2.7984015105175787e-8
2,6, 1, 6, 0, 7, 0.00,60.00,Tuesday
4973,-0.9329712533894324
4826,1642793.2745674139
4827,4.476419235288631e-8
2,6, 1, 6, 0, 8, 0.00,60.00,Tuesday
4973,-1.4251486838213546
4826,0.0
4827,0.0
2,6, 1, 6, 0, 9, 0.00,60.00,Tuesday
4973,-1.700227504175736
4826,0.0
4827,0.0
2,6, 1, 6, 0,10, 0.00,60.00,Tuesday
4973,-1.685922524330577
4826,0.0
4827,0.0
2,6, 1, 6, 0,11, 0.00,60.00,Tuesday
4973,-1.6755076502740834
4826,0.0
4827,0.0
2,6, 1, 6, 0,12, 0.00,60.00,Tuesday
4973,-1.6630987740171555
4826,0.0
4827,0.0
2,6, 1, 6, 0,13, 0.00,60.00,Tuesday
4973,-1.6358991013496754
4826,0.0
4827,0.0
2,6, 1, 6, 0,14, 0.00,60.00,Tuesday
4973,-1.5808322764371053
4826,0.0
4827,0.0
2,6, 1, 6, 0,15, 0.00,60.00,Tuesday
4973,-1.5443982859984485
4826,0.0
4827,0.0
2,6, 1, 6, 0,16, 0.00,60.00,Tuesday
4973,-1.4968583586497022
4826,0.0
4827,0.0
2,6, 1, 6, 0,17, 0.00,60.00,Tuesday
4973,-1.4638172723400862
4826,0.0
4827,0.0
2,6, 1, 6, 0,18, 0.00,60.00,Tuesday
4973,-1.4771038402329302
4826,0.0
4827,0.0
2,6, 1, 6, 0,19, 0.00,60.00,Tuesday
4973,-1.5083239959946169
4826,0.0
4827,0.0
2,6, 1, 6, 0,20, 0.00,60.00,Tuesday
4973,-1.5270694953256679
4826,0.0
4827,0.0
2,6, 1, 6, 0,21, 0.00,60.00,Tuesday
4973,-1.5571614942112664
4826,0.0
4827,0.0
2,6, 1, 6, 0,22, 0.00,60.00,Tuesday
4973,-1.107474725448131
4826,2210169.9670047538
4827,2.2793074094806799e-8
2,6, 1, 6, 0,23, 0.00,60.00,Tuesday
4973,-0.9506625757037583
4826,1536203.146926847
4827,1.0436451702844352e-8
2,6, 1, 6, 0,24, 0.00,60.00,Tuesday
4973,-0.9409885654348624
4826,1444200.6297904342
4827,2.0463630789890886e-10
2,7, 1, 7, 0, 1, 0.00,60.00,Wednesday
4973,-0.9367209497002416
4826,1644111.0998284452
4827,4.5248741896232658e-8
2,7, 1, 7, 0, 2, 0.00,60.00,Wednesday
4973,-0.9347018882637257
4826,1662836.6838519849
4827,2.184492586820852e-8
2,7, 1, 7, 0, 3, 0.00,60.00,Wednesday
4973,-0.9347016505191161
4826,1694952.7991115275
4827,5.898641575186048e-8
2,7, 1, 7, 0, 4, 0.00,60.00,Wednesday
4973,-0.9364826017043917
4826,1743039.4774378848
4827,4.374101081339177e-8
2,7, 1, 7, 0, 5, 0.00,60.00,Wednesday
4973,-0.9402179226983863
4826,1805681.9914718595
4827,8.758433978073299e-8
2,7, 1, 7, 0, 6, 0.00,60.00,Wednesday
4973,-0.9455909390513216
4826,1865161.4059724506
4827,5.1466031436575579e-8
2,7, 1, 7, 0, 7, 0.00,60.00,Wednesday
4973,-0.9511265328501358
4826,1914037.587951443
4827,9.208633855450898e-10
2,7, 1, 7, 0, 8, 0.00,60.00,Wednesday
4973,-1.5701666608158265
4826,0.0
4827,0.0
2,7, 1, 7, 0, 9, 0.00,60.00,Wednesday
4973,-1.8961297586122168
4826,0.0
4827,0.0
2,7, 1, 7, 0,10, 0.00,60.00,Wednesday
4973,-1.9078305816112074
4826,0.0
4827,0.0
2,7, 1, 7, 0,11, 0.00,60.00,Wednesday
4973,-1.8974883425289595
4826,0.0
4827,0.0
2,7, 1, 7, 0,12, 0.00,60.00,Wednesday
4973,-1.8828538379378413
4826,0.0
4827,0.0
2,7, 1, 7, 0,13, 0.00,60.00,Wednesday
4973,-1.823603038315575
4826,0.0
4827,0.0
2,7, 1, 7, 0,14, 0.00,60.00,Wednesday
4973,-1.7426290847016402
4826,0.0
4827,0.0
2,7, 1, 7, 0,15, 0.00,60.00,Wednesday
4973,-1.6528033328124654
4826,0.0
4827,0.0
2,7, 1, 7, 0,16, 0.00,60.00,Wednesday
4973,-1.540504547544941
4826,0.0
4827,0.0
2,7, 1, 7, 0,17, 0.00,60.00,Wednesday
4973,-1.4624299995050794
4826,0.0
4827,0.0
2,7, 1, 7, 0,18, 0.00,60.00,Wednesday
4973,-1.4775241074832664
4826,0.0
4827,0.0
2,7, 1, 7, 0,19, 0.00,60.00,Wednesday
4973,-1.5060860509625507
4826,0.0
4827,0.0
2,7, 1, 7, 0,20, 0.00,60.00,Wednesday
4973,-1.5243385404611197
4826,0.0
4827,0.0
2,7, 1, 7, 0,21, 0.00,60.00,Wednesday
4973,-1.5462103183355059
4826,0.0
4827,0.0
2,7, 1, 7, 0,22, 0.00,60.00,Wednesday
4973,-1.120711736910303
4826,2099768.2621909577
4827,3.487514277367154e-8
2,7, 1, 7, 0,23, 0.00,60.00,Wednesday
4973,-0.9743583514464268
4826,1489369.0332578179
4827,4.005755727121141e-8
2,7, 1, 7, 0,24, 0.00,60.00,Wednesday
4973,-0.9641418389758334
4826,1402714.6917015096
4827,5.3717030823463577e-8
2,8, 1, 8, 0, 1, 0.00,60.00,Thursday
4973,-0.958772979730244
4826,1604921.5675864367
4827,4.575807766881414e-8
2,8, 1, 8, 0, 2, 0.00,60.00,Thursday
4973,-0.9540907824341464
4826,1614453.7980182025
4827,8.108713700494263e-8
2,8, 1, 8, 0, 3, 0.00,60.00,Thursday
4973,-0.9499588597048458
4826,1637332.5625677738
4827,3.693685357575305e-8
2,8, 1, 8, 0, 4, 0.00,60.00,Thursday
4973,-0.9465371447983025
4826,1657580.6128750784
4827,2.404476617812179e-8
2,8, 1, 8, 0, 5, 0.00,60.00,Thursday
4973,-0.9435325788688201
4826,1666740.335005929
4827,3.3713831726345236e-8
2,8, 1, 8, 0, 6, 0.00,60.00,Thursday
4973,-0.9404225619815805
4826,1674740.6274445025
4827,2.680735633475706e-8
2,8, 1, 8, 0, 7, 0.00,60.00,Thursday
4973,-0.9382387840207502
4826,1673395.1415862204
4827,2.788169695122633e-8
2,8, 1, 8, 0, 8, 0.00,60.00,Thursday
4973,-1.4349053556837029
4826,0.0
4827,0.0
2,8, 1, 8, 0, 9, 0.00,60.00,Thursday
4973,-1.7175537031192859
4826,0.0
4827,0.0
2,8, 1, 8, 0,10, 0.00,60.00,Thursday
4973,-1.7228403240373887
4826,0.0
4827,0.0
2,8, 1, 8, 0,11, 0.00,60.00,Thursday
4973,-1.7086264626227257
4826,0.0
4827,0.0
2,8, 1, 8, 0,12, 0.00,60.00,Thursday
4973,-1.6892433762327093
4826,0.0
4827,0.0
2,8, 1, 8, 0,13, 0.00,60.00,Thursday
4973,-1.6615289210276643
4826,0.0
4827,0.0
2,8, 1, 8, 0,14, 0.00,60.00,Thursday
4973,-1.6349610524801462
4826,0.0
4827,0.0
2,8, 1, 8, 0,15, 0.00,60.00,Thursday
4973,-1.6136027551488375
4826,0.0
4827,0.0
2,8, 1, 8, 0,16, 0.00,60.00,Thursday
4973,-1.5964844490931043
4826,0.0
4827,0.0
2,8, 1, 8, 0,17, 0.00,60.00,Thursday
4973,-1.5810479320262879
4826,0.0
4827,0.0
2,8, 1, 8, 0,18, 0.00,60.00,Thursday
4973,-1.5810720041330424
4826,0.0
4827,0.0
2,8, 1, 8, 0,19, 0.00,60.00,Thursday
4973,-1.5966052443861667
4826,0.0
4827,0.0
2,8, 1, 8, 0,20, 0.00,60.00,Thursday
4973,-1.6097811275039174
4826,0.0
4827,0.0
2,8, 1, 8, 0,21, 0.00,60.00,Thursday
4973,-1.6222410110907469
4826,0.0
4827,0.0
2,8, 1, 8, 0,22, 0.00,60.00,Thursday
4973,-1.1421142449155213
4826,2269161.104535575
4827,6.160917109809816e-8
2,8, 1, 8, 0,23, 0.00,60.00,Thursday
4973,-0.9749782650697916
4826,1541581.684364264
4827,4.972662281943485e-8
2,8, 1, 8, 0,24, 0.00,60.00,Thursday
4973,-0.9599302295488876
4826,1452422.4767511003
4827,3.136051418550778e-8
2,9, 1, 9, 0, 1, 0.00,60.00,Friday
4973,-0.9530382413996877
4826,1666850.535855412
4827,3.1322510299755127e-8
2,9, 1, 9, 0, 2, 0.00,60.00,Friday
4973,-0.9499018024366385
4826,1693098.328868208
4827,3.125819603155833e-8
2,9, 1, 9, 0, 3, 0.00,60.00,Friday
4973,-0.9475986125371185
4826,1698759.0487197058
4827,6.231175575521775e-8
2,9, 1, 9, 0, 4, 0.00,60.00,Friday
4973,-0.9445529881581635
4826,1688111.2084111439
4827,6.722302714479156e-8
2,9, 1, 9, 0, 5, 0.00,60.00,Friday
4973,-0.9406572303230604
4826,1676133.064848858
4827,3.3509195418446328e-8
2,9, 1, 9, 0, 6, 0.00,60.00,Friday
4973,-0.9366667245440162
4826,1666343.9090212137
4827,3.182094587828033e-8
2,9, 1, 9, 0, 7, 0.00,60.00,Friday
4973,-0.9336993488817899
4826,1657627.3045462529
4827,5.248921297607012e-8
2,9, 1, 9, 0, 8, 0.00,60.00,Friday
4973,-1.421737203566428
4826,0.0
4827,0.0
2,9, 1, 9, 0, 9, 0.00,60.00,Friday
4973,-1.708968258292023
4826,0.0
4827,0.0
2,9, 1, 9, 0,10, 0.00,60.00,Friday
4973,-1.732188385936706
4826,0.0
4827,0.0
2,9, 1, 9, 0,11, 0.00,60.00,Friday
4973,-1.7356000451245255
4826,0.0
4827,0.0
2,9, 1, 9, 0,12, 0.00,60.00,Friday
4973,-1.7338921048023315
4826,0.0
4827,0.0
2,9, 1, 9, 0,13, 0.00,60.00,Friday
4973,-1.731473755708898
4826,0.0
4827,0.0
2,9, 1, 9, 0,14, 0.00,60.00,Friday
4973,-1.7240798361419865
4826,0.0
4827,0.0
2,9, 1, 9, 0,15, 0.00,60.00,Friday
4973,-1.720607733696394
4826,0.0
4827,0.0
2,9, 1, 9, 0,16, 0.00,60.00,Friday
4973,-1.7168065485102524
4826,0.0
4827,0.0
2,9, 1, 9, 0,17, 0.00,60.00,Friday
4973,-1.7194682024827366
4826,0.0
4827,0.0
2,9, 1, 9, 0,18, 0.00,60.00,Friday
4973,-1.7281373302684347
4826,0.0
4827,0.0
2,9, 1, 9, 0,19, 0.00,60.00,Friday
4973,-1.7342788780480683
4826,0.0
4827,0.0
2,9, 1, 9, 0,20, 0.00,60.00,Friday
4973,-1.7248355554643514
4826,0.0
4827,0.0
2,9, 1, 9, 0,21, 0.00,60.00,Friday
4973,-1.72315871862971
4826,0.0
4827,0.0
2,9, 1, 9, 0,22, 0.00,60.00,Friday
4973,-1.187719370297449
4826,2564233.1520755698
4827,1.937564775289502e-8
2,9, 1, 9, 0,23, 0.00,60.00,Friday
4973,-1.0060211281976182
4826,1728663.416628046
4827,2.3993607101147064e-8
2,9, 1, 9, 0,24, 0.00,60.00,Friday
4973,-0.9925293239083612
4826,1592878.8866893198
4827,4.553157850750722e-8
2,10, 1,10, 0, 1, 0.00,60.00,Saturday
4973,-0.9846665103119467
4826,1751267.8029082129
4827,1.8829565123297699
2,10, 1,10, 0, 2, 0.00,60.00,Saturday
4973,-0.978572793835472
4826,1727998.0123259435
4827,5.4433257901109758e-8
2,10, 1,10, 0, 3, 0.00,60.00,Saturday
4973,-0.9732608653694879
4826,1694489.927370777
4827,3.12070369545836e-8
2,10, 1,10, 0, 4, 0.00,60.00,Saturday
4973,-0.9679467661598532
4826,1669325.4134356757
4827,5.0238213589182126e-8
2,10, 1,10, 0, 5, 0.00,60.00,Saturday
4973,-0.9625024818359118
4826,1654293.1714672254
4827,3.9034375731716867e-8
2,10, 1,10, 0, 6, 0.00,60.00,Saturday
4973,-0.9574209983241754
4826,1646038.2809257857
4827,5.7553961596568118e-8
2,10, 1,10, 0, 7, 0.00,60.00,Saturday
4973,-0.9532831837140711
4826,1637315.2949386533
4827,3.2588332032901238e-8
2,10, 1,10, 0, 8, 0.00,60.00,Saturday
4973,-0.9500469863621833
4826,1622220.4953236785
4827,6.349694103846559e-8
2,10, 1,10, 0, 9, 0.00,60.00,Saturday
4973,-0.9471403715105362
4826,1670567.7484563715
4827,6.307914190983866e-8
2,10, 1,10, 0,10, 0.00,60.00,Saturday
4973,-0.9418068190284661
4826,1628555.1908235984
4827,5.008473635825794e-8
2,10, 1,10, 0,11, 0.00,60.00,Saturday
4973,-0.9371982581765388
4826,1626377.5071585724
4827,4.062030711793341e-8
2,10, 1,10, 0,12, 0.00,60.00,Saturday
4973,-0.9346274715593614
4826,1560659.2629325728
4827,4.594085112330504e-8
2,10, 1,10, 0,13, 0.00,60.00,Saturday
4973,-0.9325568407814943
4826,1487409.1956805057
4827,1.2533973858808168e-8
2,10, 1,10, 0,14, 0.00,60.00,Saturday
4973,-0.9336592910357802
4826,1429157.7828986247
4827,3.944364834751468e-8
2,10, 1,10, 0,15, 0.00,60.00,Saturday
4973,-0.9270093154727099
4826,1284999.6674475994
4827,2.7472424335428515e-8
2,10, 1,10, 0,16, 0.00,60.00,Saturday
4973,-0.9120167160987396
4826,1197186.0276226463
4827,3.576019480533432e-8
2,10, 1,10, 0,17, 0.00,60.00,Saturday
4973,-0.896364960013212
4826,1227415.8699527446
4827,7.448761607520282e-8
2,10, 1,10, 0,18, 0.00,60.00,Saturday
4973,-0.8880995155477507
4826,1249496.9368018669
4827,7.888729669502936e-8
2,10, 1,10, 0,19, 0.00,60.00,Saturday
4973,-0.8850737738189674
4826,1282115.6854404426
4827,2.8853719413746149e-8
2,10, 1,10, 0,20, 0.00,60.00,Saturday
4973,-0.8837542851162881
4826,1195271.459906727
4827,1.284092832065653e-8
2,10, 1,10, 0,21, 0.00,60.00,Saturday
4973,-0.8826825350215098
4826,1172942.0907893163
4827,3.529976311256178e-8
2,10, 1,10, 0,22, 0.00,60.00,Saturday
4973,-0.8780226053941278
4826,1161235.2170174784
4827,2.389128894719761e-8
2,10, 1,10, 0,23, 0.00,60.00,Saturday
4973,-0.871195825517542
4826,1161279.4867576059
4827,4.0313352656085047e-8
2,10, 1,10, 0,24, 0.00,60.00,Saturday
4973,-0.864826199014701
4826,1139237.839249241
4827,5.1159076974727216e-8
2,11, 1,11, 0, 1, 0.00,60.00,Sunday
4973,-0.8653467309247351
4826,1338082.3547667119
4827,4.189522379809724e-8
2,11, 1,11, 0, 2, 0.00,60.00,Sunday
4973,-0.8702138995145727
4826,1401652.113433477
4827,2.297042556165252e-8
2,11, 1,11, 0, 3, 0.00,60.00,Sunday
4973,-0.8766498543343109
4826,1435356.829261698
4827,4.573621481540613e-8
2,11, 1,11, 0, 4, 0.00,60.00,Sunday
4973,-0.8801699476603732
4826,1447663.6886425308
4827,4.696403266279958e-8
2,11, 1,11, 0, 5, 0.00,60.00,Sunday
4973,-0.8813799229662694
4826,1462292.3706502456
4827,5.9191052059759389e-8
2,11, 1,11, 0, 6, 0.00,60.00,Sunday
4973,-0.8833690272292132
4826,1481501.73175691
4827,0.0
2,11, 1,11, 0, 7, 0.00,60.00,Sunday
4973,-0.8861057853126638
4826,1496895.5013447316
4827,2.701199264265597e-8
2,11, 1,11, 0, 8, 0.00,60.00,Sunday
4973,-0.887476285992397
4826,1480513.8962046805
4827,4.150194854446454e-8
2,11, 1,11, 0, 9, 0.00,60.00,Sunday
4973,-0.8865611387069576
4826,1462680.4532442564
4827,2.2254198484006339e-8
2,11, 1,11, 0,10, 0.00,60.00,Sunday
4973,-0.881980345368924
4826,1389431.974426683
4827,8.338929546880536e-9
2,11, 1,11, 0,11, 0.00,60.00,Sunday
4973,-0.8756457379032683
4826,1392345.99101567
4827,4.860112312599085e-8
2,11, 1,11, 0,12, 0.00,60.00,Sunday
4973,-0.8704631643463061
4826,1354828.7403550065
4827,3.8829739423817958e-8
2,11, 1,11, 0,13, 0.00,60.00,Sunday
4973,-0.8667503680013894
4826,1324088.7522270117
4827,5.704237082682084e-8
2,11, 1,11, 0,14, 0.00,60.00,Sunday
4973,-0.8635734716294222
4826,1303807.8786652415
4827,3.309992280264851e-8
2,11, 1,11, 0,15, 0.00,60.00,Sunday
4973,-0.8606208537631955
4826,1215655.7964657024
4827,1.6473222785862164e-8
2,11, 1,11, 0,16, 0.00,60.00,Sunday
4973,-0.8570709657072752
4826,1186621.5877225204
4827,5.3512394515564668e-8
2,11, 1,11, 0,17, 0.00,60.00,Sunday
4973,-0.8553596933986235
4826,1226707.2437910047
4827,2.6551560949883425e-8
2,11, 1,11, 0,18, 0.00,60.00,Sunday
4973,-0.8548376953775588
4826,1216016.1837447463
4827,5.310312189976685e-8
2,11, 1,11, 0,19, 0.00,60.00,Sunday
4973,-0.8524685882997007
4826,1193244.017747308
4827,2.5579538487363608e-9
2,11, 1,11, 0,20, 0.00,60.00,Sunday
4973,-0.8499933133988133
4826,1053694.4672568648
4827,3.419984295760514e-8
2,11, 1,11, 0,21, 0.00,60.00,Sunday
4973,-0.8473360075123206
4826,997168.856472475
4827,1.4529177860822529e-8
2,11, 1,11, 0,22, 0.00,60.00,Sunday
4973,-0.8446765899131334
4826,980537.8387642467
4827,4.015987542516086e-8
2,11, 1,11, 0,23, 0.00,60.00,Sunday
4973,-0.8438566970105572
4826,969374.8384565166
4827,3.5709035728359598e-8
2,11, 1,11, 0,24, 0.00,60.00,Sunday
4973,-0.8432877207335073
4826,908895.3879171294
4827,2.7856117412738969e-8
2,12, 1,12, 0, 1, 0.00,60.00,Monday
4973,-0.8444690097337608
4826,1052066.8693052375
4827,3.104290158262302e-8
2,12, 1,12, 0, 2, 0.00,60.00,Monday
4973,-0.8457854789241019
4826,1063765.5156862685
4827,2.552837941038888e-8
2,12, 1,12, 0, 3, 0.00,60.00,Monday
4973,-0.8475832540373729
4826,1094352.8666634446
4827,1.1868905858136714e-8
2,12, 1,12, 0, 4, 0.00,60.00,Monday
4973,-0.8489459471142669
4826,1122559.9409488668
4827,3.509512680466287e-8
2,12, 1,12, 0, 5, 0.00,60.00,Monday
4973,-0.8487678712658917
4826,1148424.4139281943
4827,4.8038373279268856e-8
2,12, 1,12, 0, 6, 0.00,60.00,Monday
4973,-0.8470961844160312
4826,1172684.2241913402
4827,3.5146285881637598e-8
2,12, 1,12, 0, 7, 0.00,60.00,Monday
4973,-0.8443313123455531
4826,1189229.1126989863
4827,3.136051418550778e-8
2,12, 1,12, 0, 8, 0.00,60.00,Monday
4973,-1.275810390935547
4826,0.0
4827,0.0
2,12, 1,12, 0, 9, 0.00,60.00,Monday
4973,-1.5041869957531116
4826,0.0
4827,0.0
2,12, 1,12, 0,10, 0.00,60.00,Monday
4973,-1.5073760188977506
4826,0.0
4827,0.0
2,12, 1,12, 0,11, 0.00,60.00,Monday
4973,-1.5094664453895404
4826,0.0
4827,0.0
2,12, 1,12, 0,12, 0.00,60.00,Monday
4973,-1.5160681423152847
4826,0.0
4827,0.0
2,12, 1,12, 0,13, 0.00,60.00,Monday
4973,-1.5196936383775262
4826,0.0
4827,0.0
2,12, 1,12, 0,14, 0.00,60.00,Monday
4973,-1.5262367130225188
4826,0.0
4827,0.0
2,12, 1,12, 0,15, 0.00,60.00,Monday
4973,-1.5255425637318796
4826,0.0
4827,0.0
2,12, 1,12, 0,16, 0.00,60.00,Monday
4973,-1.51760910294034
4826,0.0
4827,0.0
2,12, 1,12, 0,17, 0.00,60.00,Monday
4973,-1.5070879532827582
4826,0.0
4827,0.0
2,12, 1,12, 0,18, 0.00,60.00,Monday
4973,-1.4977514887734374
4826,0.0
4827,0.0
2,12, 1,12, 0,19, 0.00,60.00,Monday
4973,-1.4961556055036103
4826,0.0
4827,0.0
2,12, 1,12, 0,20, 0.00,60.00,Monday
4973,-1.4904427996040917
4826,0.0
4827,0.0
2,12, 1,12, 0,21, 0.00,60.00,Monday
4973,-1.493811155431428
4826,0.0
4827,0.0
2,12, 1,12, 0,22, 0.00,60.00,Monday
4973,-1.0598513711324063
4826,1912671.2119409946
4827,5.242782208370045e-8
2,12, 1,12, 0,23, 0.00,60.00,Monday
4973,-0.9133569349103162
4826,1249908.9599143749
4827,5.2591531130019578e-8
2,12, 1,12, 0,24, 0.00,60.00,Monday
4973,-0.9026331991102642
4826,1140823.5899965019
4827,2.3021584638627247e-8
2,13, 1,13, 0, 1, 0.00,60.00,Tuesday
4973,-0.8961093492277815
4826,1318998.2018534165
4827,4.069738288858432
2,13, 1,13, 0, 2, 0.00,60.00,Tuesday
4973,-0.8906228735324587
4826,1310760.7853933594
4827,3.013269633811433e-8
2,13, 1,13, 0, 3, 0.00,60.00,Tuesday
4973,-0.8856721998365212
4826,1303969.1909113273
4827,2.5835333872237244e-8
2,13, 1,13, 0, 4, 0.00,60.00,Tuesday
4973,-0.8813151851785968
4826,1298019.749812798
4827,2.844444679794833e-8
2,13, 1,13, 0, 5, 0.00,60.00,Tuesday
4973,-0.8772203789965485
4826,1297317.4253459962
4827,5.448441697808448e-8
2,13, 1,13, 0, 6, 0.00,60.00,Tuesday
4973,-0.873239395227593
4826,1300679.5235321967
4827,8.952838470577263e-8
2,13, 1,13, 0, 7, 0.00,60.00,Tuesday
4973,-0.8703616300422699
4826,1301177.2212397373