Program Version,EnergyPlus, Version 8.7.0-78a111df4a, YMD=2019.06.21 03:05
1,5,Environment Title[],Latitude[deg],Longitude[deg],Time Zone[],Elevation[m]
2,6,Day of Simulation[],Month[],Day of Month[],DST Indicator[1=yes 0=no],Hour[],StartMinute[],EndMinute[],DayType
3,3,Cumulative Day of Simulation[],Month[],Day of Month[],DST Indicator[1=yes 0=no],DayType  ! When Daily Report Variables Requested
4,2,Cumulative Days of Simulation[],Month[]  ! When Monthly Report Variables Requested
5,1,Cumulative Days of Simulation[] ! When Run Period Report Variables Requested
1929,1,THERMAL ZONE: SPACE 201,Zone Air Temperature [C] !Hourly
2695,1,THERMAL ZONE: SPACE 201 PEOPLE,Zone Thermal Comfort Fanger Model PMV [] !Hourly
3063,1,THERMAL ZONE: SPACE 305 PTHP,Zone Packaged Terminal Heat Pump Total Heating Energy [J] !Hourly
3064,1,THERMAL ZONE: SPACE 305 PTHP,Zone Packaged Terminal Heat Pump Total Cooling Energy [J] !Hourly
End of Data Dictionary
1,ANN HTG 99.6% CONDNS DB,  29.58, 106.47,   8.00, 259.10
2,1, 1,21, 0, 1, 0.00,60.00,WinterDesignDay
2695,-6.493923253008646
1929,18.00006590184085
3063,4651571.681675007
3064,0.0
2,1, 1,21, 0, 2, 0.00,60.00,WinterDesignDay
2695,-6.497837498404338
1929,18.000049818771477
3063,4670630.552057016
3064,0.0
2,1, 1,21, 0, 3, 0.00,60.00,WinterDesignDay
2695,-6.501101822987821
1929,18.000035781764038
3063,4690419.239684881
3064,0.0
2,1, 1,21, 0, 4, 0.00,60.00,WinterDesignDay
2695,-6.503963928321739
1929,18.000030335929499
3063,4708151.113904871
3064,0.0
2,1, 1,21, 0, 5, 0.00,60.00,WinterDesignDay
2695,-6.506682926885798
1929,18.00002391848877
3063,4728335.554846924
3064,0.0
2,1, 1,21, 0, 6, 0.00,60.00,WinterDesignDay
2695,-6.5089370916191389
1929,17.999995930742718
3063,4758648.844626795
3064,0.0
2,1, 1,21, 0, 7, 0.00,60.00,WinterDesignDay
2695,-5.6775403180830479
1929,17.99992752977481
3063,4797709.703935299
3064,0.0
2,1, 1,21, 0, 8, 0.00,60.00,WinterDesignDay
2695,-5.674647985317481
1929,17.9998334840972
3063,5184134.744489509
3064,0.0
2,1, 1,21, 0, 9, 0.00,60.00,WinterDesignDay
2695,-5.319475347516834
1929,18.000098994505757
3063,6309135.471243969
3064,0.0
2,1, 1,21, 0,10, 0.00,60.00,WinterDesignDay
2695,-5.300656409601493
1929,18.000705977856116
3063,7303255.562486806
3064,0.0
2,1, 1,21, 0,11, 0.00,60.00,WinterDesignDay
2695,-5.288768655201545
1929,18.0009000508697
3063,7019914.006428309
3064,0.0
2,1, 1,21, 0,12, 0.00,60.00,WinterDesignDay
2695,-5.281018923430009
1929,18.000927137640145
3063,6833438.761416304
3064,0.0
2,1, 1,21, 0,13, 0.00,60.00,WinterDesignDay
2695,-5.276787345761247
1929,18.000841262314485
3063,6364599.388961407
3064,0.0
2,1, 1,21, 0,14, 0.00,60.00,WinterDesignDay
2695,-5.273173846446664
1929,18.00081740847029
3063,6291417.214663215
3064,0.0
2,1, 1,21, 0,15, 0.00,60.00,WinterDesignDay
2695,-5.2685348860423109
1929,18.00096277375012
3063,6554401.194479464
3064,0.0
2,1, 1,21, 0,16, 0.00,60.00,WinterDesignDay
2695,-5.266700948345501
1929,18.001089999210547
3063,6541808.559370634
3064,0.0
2,1, 1,21, 0,17, 0.00,60.00,WinterDesignDay
2695,-5.267973047553767
1929,18.001148461894933
3063,6599123.092400235
3064,0.0
2,1, 1,21, 0,18, 0.00,60.00,WinterDesignDay
2695,-5.270332608805727
1929,18.00119497322709
3063,6686136.719831603
3064,0.0
2,1, 1,21, 0,19, 0.00,60.00,WinterDesignDay
2695,-5.615550965149399
1929,18.000683344007969
3063,5221253.402056276
3064,0.0
2,1, 1,21, 0,20, 0.00,60.00,WinterDesignDay
2695,-5.631120117632062
1929,18.000359405128838
3063,5397751.838831782
3064,0.0
2,1, 1,21, 0,21, 0.00,60.00,WinterDesignDay
2695,-5.641433929890582
1929,18.00018899626596
3063,4568496.568579799
3064,0.0
2,1, 1,21, 0,22, 0.00,60.00,WinterDesignDay
2695,-5.649450278900612
1929,18.00011533592259
3063,4612362.157920517
3064,0.0
2,1, 1,21, 0,23, 0.00,60.00,WinterDesignDay
2695,-5.655098315992698
1929,18.00008771974251
3063,4633127.627382603
3064,0.0
2,1, 1,21, 0,24, 0.00,60.00,WinterDesignDay
2695,-5.659688896647309
1929,18.00007529034555
3063,4646772.533722153
3064,0.0
1,ANN CLG 4% CONDNS DB =>MWB,  29.58, 106.47,   8.00, 259.10
2,1, 7,21, 0, 1, 0.00,60.00,SummerDesignDay
2695,-3.1531323236371899
1929,25.9997597989707
3063,0.0
3064,880349.6986828463
2,1, 7,21, 0, 2, 0.00,60.00,SummerDesignDay
2695,-3.16337827296755
1929,25.999831091779205
3063,0.0
3064,847894.3694907032
2,1, 7,21, 0, 3, 0.00,60.00,SummerDesignDay
2695,-3.171319879908643
1929,25.999879999080617
3063,0.0
3064,820759.3447798303
2,1, 7,21, 0, 4, 0.00,60.00,SummerDesignDay
2695,-3.177786352471196
1929,25.999910605107386
3063,0.0
3064,797385.8229435247
2,1, 7,21, 0, 5, 0.00,60.00,SummerDesignDay
2695,-3.1833754471795658
1929,25.9999321167293
3063,0.0
3064,775176.0954564292
2,1, 7,21, 0, 6, 0.00,60.00,SummerDesignDay
2695,-3.1882281029690584
1929,25.999961231675319
3063,0.0
3064,749831.9851452983
2,1, 7,21, 0, 7, 0.00,60.00,SummerDesignDay
2695,-3.8915281713503737
1929,25.999996608533754
3063,0.0
3064,719735.186787208
2,1, 7,21, 0, 8, 0.00,60.00,SummerDesignDay
2695,-3.868572924372724
1929,25.99968176232984
3063,0.0
3064,1124648.681591307
2,1, 7,21, 0, 9, 0.00,60.00,SummerDesignDay
2695,-3.810408713868879
1929,25.996907821812007
3063,0.0
3064,3786688.90626985
2,1, 7,21, 0,10, 0.00,60.00,SummerDesignDay
2695,-3.6599654839179776
1929,26.581133318453199
3063,0.0
3064,6869532.416225763
2,1, 7,21, 0,11, 0.00,60.00,SummerDesignDay
2695,-3.54693492678213
1929,26.9846276506532
3063,0.0
3064,6972647.181090426
2,1, 7,21, 0,12, 0.00,60.00,SummerDesignDay
2695,-3.4769453827996097
1929,27.286078222613147
3063,0.0
3064,6913280.129688373
2,1, 7,21, 0,13, 0.00,60.00,SummerDesignDay
2695,-3.5137531746691179
1929,26.963700984670515
3063,0.0
3064,6568453.857286557
2,1, 7,21, 0,14, 0.00,60.00,SummerDesignDay
2695,-3.520270263096197
1929,27.019393177468243
3063,0.0
3064,6329358.501249877
2,1, 7,21, 0,15, 0.00,60.00,SummerDesignDay
2695,-3.4102154818440817
1929,27.628724971505368
3063,0.0
3064,6660071.09106769
2,1, 7,21, 0,16, 0.00,60.00,SummerDesignDay
2695,-3.364725104877666
1929,27.675094187776624
3063,0.0
3064,6920075.557143219
2,1, 7,21, 0,17, 0.00,60.00,SummerDesignDay
2695,-3.3803314005015507
1929,27.552294494964248
3063,0.0
3064,7013252.63152241
2,1, 7,21, 0,18, 0.00,60.00,SummerDesignDay
2695,-3.4072756455386767
1929,27.37778524529944
3063,0.0
3064,7108301.437785871
2,1, 7,21, 0,19, 0.00,60.00,SummerDesignDay
2695,-3.581236413844089
1929,26.047499555892516
3063,0.0
3064,4159099.534393014
2,1, 7,21, 0,20, 0.00,60.00,SummerDesignDay
2695,-3.6914231181684129
1929,25.997020851879687
3063,0.0
3064,3389860.7600427914
2,1, 7,21, 0,21, 0.00,60.00,SummerDesignDay
2695,-3.725503374182989
1929,25.998585621007594
3063,0.0
3064,1360420.953797548
2,1, 7,21, 0,22, 0.00,60.00,SummerDesignDay
2695,-3.7775628626258088
1929,25.999173188280339
3063,0.0
3064,1133036.380019836
2,1, 7,21, 0,23, 0.00,60.00,SummerDesignDay
2695,-3.8088979440286687
1929,25.999475896678886
3063,0.0
3064,1018493.2913272545
2,1, 7,21, 0,24, 0.00,60.00,SummerDesignDay
2695,-3.8294405776902269
1929,25.99966029267679
3063,0.0
3064,948495.5126706088
1,RUN PERIOD 1,  29.58, 106.47,   8.00, 259.10
2,1, 1, 1, 0, 1, 0.00,60.00,Holiday
2695,-6.117342882771368
1929,18.000204374414087
3063,1713362.935856
3064,0.0
2,1, 1, 1, 0, 2, 0.00,60.00,Holiday
2695,-6.120569691545022
1929,18.00007982949786
3063,1741024.2269921322
3064,0.0
2,1, 1, 1, 0, 3, 0.00,60.00,Holiday
2695,-6.122203632828902
1929,18.000055869453
3063,1745192.7452732046
3064,0.0
2,1, 1, 1, 0, 4, 0.00,60.00,Holiday
2695,-6.124033100770134
1929,18.000074533662688
3063,1744020.478677743
3064,0.0
2,1, 1, 1, 0, 5, 0.00,60.00,Holiday
2695,-6.127222541997593
1929,18.000128261337779
3063,1738571.769415282
3064,0.0
2,1, 1, 1, 0, 6, 0.00,60.00,Holiday
2695,-6.13408813543693
1929,18.000164600743305
3063,1678459.1032350776
3064,0.0
2,1, 1, 1, 0, 7, 0.00,60.00,Holiday
2695,-6.540460197901386
1929,18.000124005631738
3063,1725346.1458873507
3064,0.0
2,1, 1, 1, 0, 8, 0.00,60.00,Holiday
2695,-6.5496195102446
1929,18.000079908860234
3063,1785408.53657442
3064,0.0
2,1, 1, 1, 0, 9, 0.00,60.00,Holiday
2695,-6.055566277983705
1929,18.000040220519649
3063,1844602.5057925424
3064,0.0
2,1, 1, 1, 0,10, 0.00,60.00,Holiday
2695,-6.058376070951347
1929,18.00000896727436
3063,1908108.118317157
3064,0.0
2,1, 1, 1, 0,11, 0.00,60.00,Holiday
2695,-6.059284514583361
1929,18.000005583557465
3063,1950622.3910663019
3064,0.0
2,1, 1, 1, 0,12, 0.00,60.00,Holiday
2695,-6.059934573940121
1929,18.000002281467606
3063,1971958.9892349309
3064,0.0
2,1, 1, 1, 0,13, 0.00,60.00,Holiday
2695,-6.060692315103189
1929,18.000000671139618
3063,2014122.689902366
3064,0.0
2,1, 1, 1, 0,14, 0.00,60.00,Holiday
2695,-6.059445863102577
1929,18.000000556278498
3063,2053895.681819771
3064,0.0
2,1, 1, 1, 0,15, 0.00,60.00,Holiday
2695,-6.0558545100804939
1929,18.000000448322486
3063,2078405.0830093935
3064,0.0
2,1, 1, 1, 0,16, 0.00,60.00,Holiday
2695,-6.049770140539853
1929,18.000000349285434
3063,2090092.5041120237
3064,0.0
2,1, 1, 1, 0,17, 0.00,60.00,Holiday
2695,-6.0411164631353639
1929,18.000000272734345
3063,2086430.5263827069
3064,0.0
2,1, 1, 1, 0,18, 0.00,60.00,Holiday
2695,-6.030321835172267
1929,18.000000225072815
3063,2061300.9719040434
3064,0.0
2,1, 1, 1, 0,19, 0.00,60.00,Holiday
2695,-6.512235818040788
1929,18.00000019956853
3063,2012146.4769093169
3064,0.0
2,1, 1, 1, 0,20, 0.00,60.00,Holiday
2695,-6.499619162271979
1929,18.00000020324085
3063,1922531.679834722
3064,0.0
2,1, 1, 1, 0,21, 0.00,60.00,Holiday
2695,-6.492495792670577
1929,18.000051801901319
3063,1809321.9337920687
3064,0.0
2,1, 1, 1, 0,22, 0.00,60.00,Holiday
2695,-6.492698636995713
1929,18.000282243828115
3063,1724075.3684991103
3064,0.0
2,1, 1, 1, 0,23, 0.00,60.00,Holiday
2695,-6.498077436272879
1929,18.00037660265329
3063,1685837.310073526
3064,0.0
2,1, 1, 1, 0,24, 0.00,60.00,Holiday
2695,-6.505502723644263
1929,18.000369578846248
3063,1676639.422449878
3064,0.0
2,2, 1, 2, 0, 1, 0.00,60.00,Holiday
2695,-6.512518781199589
1929,18.000337594135897
3063,1676911.0190840795
3064,0.0
2,2, 1, 2, 0, 2, 0.00,60.00,Holiday
2695,-6.519599395227611
1929,18.000276767936457
3063,1690804.596565432
3064,0.0
2,2, 1, 2, 0, 3, 0.00,60.00,Holiday
2695,-6.526058504288133
1929,18.00020108166856
3063,1713659.8780741953
3064,0.0
2,2, 1, 2, 0, 4, 0.00,60.00,Holiday
2695,-6.531120599809078
1929,18.00014218495797
3063,1735906.686624043
3064,0.0
2,2, 1, 2, 0, 5, 0.00,60.00,Holiday
2695,-6.535239598114888
1929,18.000102763352179
3063,1757941.2516635787
3064,0.0
2,2, 1, 2, 0, 6, 0.00,60.00,Holiday
2695,-6.5388247021668539
1929,18.00007653684982
3063,1781739.5437746617
3064,0.0
2,2, 1, 2, 0, 7, 0.00,60.00,Holiday
2695,-6.642533874839285
1929,18.00006577823967
3063,1805348.7509789877
3064,0.0
2,2, 1, 2, 0, 8, 0.00,60.00,Holiday
2695,-6.645862451446458
1929,18.000050766314627
3063,1834400.9225873938
3064,0.0
2,2, 1, 2, 0, 9, 0.00,60.00,Holiday
2695,-6.131446116138409
1929,18.000004794898737
3063,1884250.3081681105
3064,0.0
2,2, 1, 2, 0,10, 0.00,60.00,Holiday
2695,-6.13163642731811
1929,18.000000531842756
3063,1938270.9160184756
3064,0.0
2,2, 1, 2, 0,11, 0.00,60.00,Holiday
2695,-6.130252296466257
1929,18.000000473655054
3063,1962128.3226941918
3064,0.0
2,2, 1, 2, 0,12, 0.00,60.00,Holiday
2695,-6.129245870615691
1929,18.000000431773228
3063,1980766.4468906986
3064,0.0
2,2, 1, 2, 0,13, 0.00,60.00,Holiday
2695,-6.128331536078563
1929,18.000000398598499
3063,1997659.6113667202
3064,0.0
2,2, 1, 2, 0,14, 0.00,60.00,Holiday
2695,-6.127204166641806
1929,18.000000361654533
3063,2010818.1376378206
3064,0.0
2,2, 1, 2, 0,15, 0.00,60.00,Holiday
2695,-6.124908808340959
1929,18.000000314124724
3063,2026185.505951989
3064,0.0
2,2, 1, 2, 0,16, 0.00,60.00,Holiday
2695,-6.120267508514339
1929,18.000000270327246
3063,2029306.0663771872
3064,0.0
2,2, 1, 2, 0,17, 0.00,60.00,Holiday
2695,-6.113792832797721
1929,18.000000256837259
3063,1982448.8365857518
3064,0.0
2,2, 1, 2, 0,18, 0.00,60.00,Holiday
2695,-6.108440630686182
1929,18.00000027221353
3063,1906739.2560850925
3064,0.0
2,2, 1, 2, 0,19, 0.00,60.00,Holiday
2695,-6.617426171779105
1929,18.00002244316843
3063,1838836.5275166368
3064,0.0
2,2, 1, 2, 0,20, 0.00,60.00,Holiday
2695,-6.615550810881783
1929,18.000091810498433
3063,1782896.0035736878
3064,0.0
2,2, 1, 2, 0,21, 0.00,60.00,Holiday
2695,-6.615215961717681
1929,18.000089673974885
3063,1753246.5388908494
3064,0.0
2,2, 1, 2, 0,22, 0.00,60.00,Holiday
2695,-6.614762665225786
1929,18.000020542162497
3063,1750556.32654056
3064,0.0
2,2, 1, 2, 0,23, 0.00,60.00,Holiday
2695,-6.6132567837993119
1929,18.000000374394714
3063,1744481.7344684306
3064,0.0
2,2, 1, 2, 0,24, 0.00,60.00,Holiday
2695,-6.612334546754834
1929,18.000042010363705
3063,1720219.732069867
3064,0.0
2,3, 1, 3, 0, 1, 0.00,60.00,Holiday
2695,-6.61418278746419
1929,18.000112369391954
3063,1702860.3673829747
3064,0.0
2,3, 1, 3, 0, 2, 0.00,60.00,Holiday
2695,-6.618400631671793
1929,18.00020382609882
3063,1682869.9559049803
3064,0.0
2,3, 1, 3, 0, 3, 0.00,60.00,Holiday
2695,-6.626091290785432
1929,18.000244508688103
3063,1636267.7346105383
3064,0.0
2,3, 1, 3, 0, 4, 0.00,60.00,Holiday
2695,-6.6393440767882849
1929,18.00015901155979
3063,1676016.0335051316
3064,0.0
2,3, 1, 3, 0, 5, 0.00,60.00,Holiday
2695,-6.648990093016295
1929,18.00008267166089
3063,1751774.6804842982
3064,0.0
2,3, 1, 3, 0, 6, 0.00,60.00,Holiday
2695,-6.65464136018089
1929,18.000040766729069
3063,1803101.1144507533
3064,0.0
2,3, 1, 3, 0, 7, 0.00,60.00,Holiday
2695,-6.5600719864812409
1929,18.000007557106696
3063,1871924.99819499
3064,0.0
2,3, 1, 3, 0, 8, 0.00,60.00,Holiday
2695,-6.560556570974334
1929,18.000003603858528
3063,1896342.1716968846
3064,0.0
2,3, 1, 3, 0, 9, 0.00,60.00,Holiday
2695,-6.060522210611775
1929,18.00000070530631
3063,1927907.5815513323
3064,0.0
2,3, 1, 3, 0,10, 0.00,60.00,Holiday
2695,-6.061290319761894
1929,18.000000661128749
3063,1961750.719416483
3064,0.0
2,3, 1, 3, 0,11, 0.00,60.00,Holiday
2695,-6.06225558322702
1929,18.000000627777678
3063,1996768.7296538228
3064,0.0
2,3, 1, 3, 0,12, 0.00,60.00,Holiday
2695,-6.063172830822168
1929,18.00000059697146
3063,2028759.3147209753
3064,0.0
2,3, 1, 3, 0,13, 0.00,60.00,Holiday
2695,-6.064347468144966
1929,18.00000057552037
3063,2059172.082287221
3064,0.0
2,3, 1, 3, 0,14, 0.00,60.00,Holiday
2695,-6.0655501523107608
1929,18.00000055991254
3063,2089631.8981786383
3064,0.0
2,3, 1, 3, 0,15, 0.00,60.00,Holiday
2695,-6.066595196585293
1929,18.00000055106338
3063,2119549.009924542
3064,0.0
2,3, 1, 3, 0,16, 0.00,60.00,Holiday
2695,-6.067247450981242
1929,18.000000546603429
3063,2146080.8119611896
3064,0.0
2,3, 1, 3, 0,17, 0.00,60.00,Holiday
2695,-6.067396786303871
1929,18.00000054123518
3063,2174422.9848756606
3064,0.0
2,3, 1, 3, 0,18, 0.00,60.00,Holiday
2695,-6.066693375084839
1929,18.00000054187324
3063,2195115.726429116
3064,0.0
2,3, 1, 3, 0,19, 0.00,60.00,Holiday
2695,-6.56863903831417
1929,18.0000005399509
3063,2211904.7079965656
3064,0.0
2,3, 1, 3, 0,20, 0.00,60.00,Holiday
2695,-6.566545210814375
1929,18.00000054585242
3063,2224750.320621228
3064,0.0
2,3, 1, 3, 0,21, 0.00,60.00,Holiday
2695,-6.564092154176099
1929,18.000000554683717
3063,2230889.4066048988
3064,0.0
2,3, 1, 3, 0,22, 0.00,60.00,Holiday
2695,-6.561828280338891
1929,18.000000565405565
3063,2231671.1235763805
3064,0.0
2,3, 1, 3, 0,23, 0.00,60.00,Holiday
2695,-6.560197101600308
1929,18.000000581731827
3063,2233582.0356460309
3064,0.0
2,3, 1, 3, 0,24, 0.00,60.00,Holiday
2695,-6.559245905645302
1929,18.00000059853895
3063,2231295.657255293
3064,0.0
2,4, 1, 4, 0, 1, 0.00,60.00,Wednesday
2695,-6.559292754443327
1929,18.0000006159179
3063,2237573.328683519
3064,0.0
2,4, 1, 4, 0, 2, 0.00,60.00,Wednesday
2695,-6.559609331314313
1929,18.00000193529501
3063,2241841.4476923027
3064,0.0
2,4, 1, 4, 0, 3, 0.00,60.00,Wednesday
2695,-6.560447421968573
1929,18.000001395071654
3063,2251464.993861404
3064,0.0
2,4, 1, 4, 0, 4, 0.00,60.00,Wednesday
2695,-6.56114080243361
1929,18.000000671452125
3063,2264767.5097526337
3064,0.0
2,4, 1, 4, 0, 5, 0.00,60.00,Wednesday
2695,-6.56146315499452
1929,18.000000682273407
3063,2280671.6448349345
3064,0.0
2,4, 1, 4, 0, 6, 0.00,60.00,Wednesday
2695,-6.561226636619845
1929,18.00000069574725
3063,2291244.614766402
3064,0.0
2,4, 1, 4, 0, 7, 0.00,60.00,Wednesday
2695,-6.69060286797308
1929,18.000000707154926
3063,2296554.2246010906
3064,0.0
2,4, 1, 4, 0, 8, 0.00,60.00,Wednesday
2695,-6.689046825840109
1929,18.000025351664744
3063,2292770.043131477
3064,0.0
2,4, 1, 4, 0, 9, 0.00,60.00,Wednesday
2695,-6.1524262733384129
1929,18.00020570027124
3063,2201787.489721359
3064,0.0
2,4, 1, 4, 0,10, 0.00,60.00,Wednesday
2695,-6.134927863030431
1929,18.000420400358128
3063,2047052.186765039
3064,0.0
2,4, 1, 4, 0,11, 0.00,60.00,Wednesday
2695,-6.1289230516009989
1929,18.000510614922815
3063,1959497.1275361849
3064,0.0
2,4, 1, 4, 0,12, 0.00,60.00,Wednesday
2695,-6.129861761454269
1929,18.000489875254016
3063,1899592.306192491
3064,0.0
2,4, 1, 4, 0,13, 0.00,60.00,Wednesday
2695,-6.131670924810486
1929,18.000475784393399
3063,1864487.1970698722
3064,0.0
2,4, 1, 4, 0,14, 0.00,60.00,Wednesday
2695,-6.132270474026171
1929,18.00041167511276
3063,1779290.4805511824
3064,0.0
2,4, 1, 4, 0,15, 0.00,60.00,Wednesday
2695,-6.126821450002751
1929,18.00029307239061
3063,1573913.9608665556
3064,0.0
2,4, 1, 4, 0,16, 0.00,60.00,Wednesday
2695,-6.1163070272052659
1929,18.00022501255278
3063,1406307.6701745168
3064,0.0
2,4, 1, 4, 0,17, 0.00,60.00,Wednesday
2695,-6.105611085569804
1929,18.000223712235579
3063,1319235.478709337
3064,0.0
2,4, 1, 4, 0,18, 0.00,60.00,Wednesday
2695,-6.0997071612376498
1929,18.00024795589462
3063,1322077.715327685
3064,0.0
2,4, 1, 4, 0,19, 0.00,60.00,Wednesday
2695,-6.61942227700368
1929,18.000403539081593
3063,1793686.1415495419
3064,0.0
2,4, 1, 4, 0,20, 0.00,60.00,Wednesday
2695,-6.631575587109194
1929,18.000275338618935
3063,1854735.6148963266
3064,0.0
2,4, 1, 4, 0,21, 0.00,60.00,Wednesday
2695,-6.640300576808351
1929,18.00025545963239
3063,1976421.288868179
3064,0.0
2,4, 1, 4, 0,22, 0.00,60.00,Wednesday
2695,-6.647064225870161
1929,18.000192513278809
3063,1992328.672037989
3064,0.0
2,4, 1, 4, 0,23, 0.00,60.00,Wednesday
2695,-6.652144526135963
1929,18.000147742111456
3063,2000157.714621881
3064,0.0
2,4, 1, 4, 0,24, 0.00,60.00,Wednesday
2695,-6.65646390881552
1929,18.00013124202829
3063,2002922.2260624644
3064,0.0
2,5, 1, 5, 0, 1, 0.00,60.00,Thursday
2695,-6.66114180458744
1929,18.00011854243464
3063,2009376.0881304334
3064,0.0
2,5, 1, 5, 0, 2, 0.00,60.00,Thursday
2695,-6.665458326347671
1929,18.000112620487447
3063,2016928.691164579
3064,0.0
2,5, 1, 5, 0, 3, 0.00,60.00,Thursday
2695,-6.6694765270083569
1929,18.000127107099954
3063,2021097.6841981516
3064,0.0
2,5, 1, 5, 0, 4, 0.00,60.00,Thursday
2695,-6.674091564667379
1929,18.000158499281075
3063,2022706.4079368665
3064,0.0
2,5, 1, 5, 0, 5, 0.00,60.00,Thursday
2695,-6.679452704120102
1929,18.000163743730398
3063,2033852.332746211
3064,0.0
2,5, 1, 5, 0, 6, 0.00,60.00,Thursday
2695,-6.684743778432178
1929,18.000150896394165
3063,2049295.1152525992
3064,0.0
2,5, 1, 5, 0, 7, 0.00,60.00,Thursday
2695,-6.70151868014258
1929,18.00016311307029
3063,2055594.8012485116
3064,0.0
2,5, 1, 5, 0, 8, 0.00,60.00,Thursday
2695,-6.705609251608195
1929,18.000155615064828
3063,2068024.3101152708
3064,0.0
2,5, 1, 5, 0, 9, 0.00,60.00,Thursday
2695,-6.170576187564528
1929,18.00022608047548
3063,2001307.6878123205
3064,0.0
2,5, 1, 5, 0,10, 0.00,60.00,Thursday
2695,-6.153168676472762
1929,18.000365827916015
3063,1859755.735903033
3064,0.0
2,5, 1, 5, 0,11, 0.00,60.00,Thursday
2695,-6.143490093461697
1929,18.000422808798154
3063,1767403.1208981616
3064,0.0
2,5, 1, 5, 0,12, 0.00,60.00,Thursday
2695,-6.139636410552001
1929,18.00041603314968
3063,1705122.821074844
3064,0.0
2,5, 1, 5, 0,13, 0.00,60.00,Thursday
2695,-6.1376856593836399
1929,18.000390316604827
3063,1685324.4984095656
3064,0.0
2,5, 1, 5, 0,14, 0.00,60.00,Thursday
2695,-6.133695671068737
1929,18.000364328463769
3063,1622324.6326970603
3064,0.0
2,5, 1, 5, 0,15, 0.00,60.00,Thursday
2695,-6.128088031252454
1929,18.000320458807587
3063,1486428.6128829404
3064,0.0
2,5, 1, 5, 0,16, 0.00,60.00,Thursday
2695,-6.122872154275793
1929,18.000295299872133
3063,1392908.6406307175
3064,0.0
2,5, 1, 5, 0,17, 0.00,60.00,Thursday
2695,-6.118221184507822
1929,18.000262731735558
3063,1299784.2172998016
3064,0.0
2,5, 1, 5, 0,18, 0.00,60.00,Thursday
2695,-6.113766336965412
1929,18.00023737241468
3063,1214866.3923305467
3064,0.0
2,5, 1, 5, 0,19, 0.00,60.00,Thursday
2695,-6.636178715206166
1929,18.00037604241997
3063,1615213.7506307597
3064,0.0
2,5, 1, 5, 0,20, 0.00,60.00,Thursday
2695,-6.6488111628166
1929,18.000259068435406
3063,1653063.6051959994
3064,0.0
2,5, 1, 5, 0,21, 0.00,60.00,Thursday
2695,-6.6581407667898448
1929,18.000268000414104
3063,1823014.1072495282
3064,0.0
2,5, 1, 5, 0,22, 0.00,60.00,Thursday
2695,-6.665734956749794
1929,18.000234735208897
3063,1838477.4136019159
3064,0.0
2,5, 1, 5, 0,23, 0.00,60.00,Thursday
2695,-6.6722609716592589
1929,18.00018663474883
3063,1855243.4793023328
3064,0.0
2,5, 1, 5, 0,24, 0.00,60.00,Thursday
2695,-6.67733112155648
1929,18.00009249419246
3063,1885009.6610040433
3064,0.0
2,6, 1, 6, 0, 1, 0.00,60.00,Friday
2695,-6.679743518663937
1929,18.000037917940664
3063,1901545.7549620309
3064,0.0
2,6, 1, 6, 0, 2, 0.00,60.00,Friday
2695,-6.681280845307843
1929,18.000004677776159
3063,1919829.122710657
3064,0.0
2,6, 1, 6, 0, 3, 0.00,60.00,Friday
2695,-6.681763805384933
1929,18.00000050400966
3063,1940033.5751149147
3064,0.0
2,6, 1, 6, 0, 4, 0.00,60.00,Friday
2695,-6.681292797796748
1929,18.00000052169765
3063,1956031.0173287034
3064,0.0
2,6, 1, 6, 0, 5, 0.00,60.00,Friday
2695,-6.6803104720120809
1929,18.000000533173219
3063,1969006.4468129264
3064,0.0
2,6, 1, 6, 0, 6, 0.00,60.00,Friday
2695,-6.679206746102352
1929,18.00000053973045
3063,1981678.0907629335
3064,0.0
2,6, 1, 6, 0, 7, 0.00,60.00,Friday
2695,-6.675461553511536
1929,18.000000546387267
3063,1983166.6499688707
3064,0.0
2,6, 1, 6, 0, 8, 0.00,60.00,Friday
2695,-6.674073003344063
1929,18.00001928364397
3063,1977858.7533859835
3064,0.0
2,6, 1, 6, 0, 9, 0.00,60.00,Friday
2695,-6.140554317702365
1929,18.00016690202854
3063,1857850.6212700508
3064,0.0
2,6, 1, 6, 0,10, 0.00,60.00,Friday
2695,-6.121296444375969
1929,18.000296985175067
3063,1579139.3157891159
3064,0.0
2,6, 1, 6, 0,11, 0.00,60.00,Friday
2695,-6.112368597696631
1929,18.000306226836533
3063,1388624.9358054926
3064,0.0
2,6, 1, 6, 0,12, 0.00,60.00,Friday
2695,-6.109705771394107
1929,18.00023890122276
3063,1224101.312794588
3064,0.0
2,6, 1, 6, 0,13, 0.00,60.00,Friday
2695,-6.1077219186504119
1929,18.00020883249604
3063,1152576.2966224689
3064,0.0
2,6, 1, 6, 0,14, 0.00,60.00,Friday
2695,-6.103995612077607
1929,18.00017886585361
3063,968324.1726610186
3064,0.0
2,6, 1, 6, 0,15, 0.00,60.00,Friday
2695,-6.073331418657605
1929,18.16498233510664
3063,540329.8417858727
3064,0.0
2,6, 1, 6, 0,16, 0.00,60.00,Friday
2695,-6.007200500073849
1929,18.432666101095728
3063,247168.88198212564
3064,0.0
2,6, 1, 6, 0,17, 0.00,60.00,Friday
2695,-5.953994353873495
1929,18.576527641373777
3063,99674.96584050241
3064,0.0
2,6, 1, 6, 0,18, 0.00,60.00,Friday
2695,-5.932512780268595
1929,18.582921022686006
3063,94755.7088616419
3064,0.0
2,6, 1, 6, 0,19, 0.00,60.00,Friday
2695,-6.500710029094563
1929,18.02565497283135
3063,1037122.9448728276
3064,0.0
2,6, 1, 6, 0,20, 0.00,60.00,Friday
2695,-6.53365573946671
1929,18.000147343973628
3063,1047548.3135900578
3064,0.0
2,6, 1, 6, 0,21, 0.00,60.00,Friday
2695,-6.538378713735088
1929,18.000231489523796
3063,1331693.077446539
3064,0.0
2,6, 1, 6, 0,22, 0.00,60.00,Friday
2695,-6.5403850267713159
1929,18.00019873576672
3063,1307762.413399797
3064,0.0
2,6, 1, 6, 0,23, 0.00,60.00,Friday
2695,-6.542530427514401
1929,18.00018949234453
3063,1285258.3753335728
3064,0.0
2,6, 1, 6, 0,24, 0.00,60.00,Friday
2695,-6.545659949715236
1929,18.00019070869901
3063,1270457.7750275373
3064,0.0
2,7, 1, 7, 0, 1, 0.00,60.00,Saturday
2695,-6.549935440979863
1929,18.000182978816637
3063,1268064.139214268
3064,0.0
2,7, 1, 7, 0, 2, 0.00,60.00,Saturday
2695,-6.554918293174478
1929,18.000187781418615
3063,1269472.6887834913
3064,0.0
2,7, 1, 7, 0, 3, 0.00,60.00,Saturday
2695,-6.560859213781818
1929,18.00020515119294
3063,1273576.561507518
3064,0.0
2,7, 1, 7, 0, 4, 0.00,60.00,Saturday
2695,-6.5681028645919119
1929,18.000228595992014
3063,1280584.7529265867
3064,0.0
2,7, 1, 7, 0, 5, 0.00,60.00,Saturday
2695,-6.576904399958572
1929,18.00025856545779
3063,1267607.5885654013
3064,0.0
2,7, 1, 7, 0, 6, 0.00,60.00,Saturday
2695,-6.592990624928375
1929,18.000230899970853
3063,1221501.0578135686
3064,0.0
2,7, 1, 7, 0, 7, 0.00,60.00,Saturday
2695,-6.4057222640992219
1929,18.000159425065147
3063,1300497.3297963916
3064,0.0
2,7, 1, 7, 0, 8, 0.00,60.00,Saturday
2695,-6.420351236027595
1929,18.000098376155063
3063,1379800.9566435682
3064,0.0
2,7, 1, 7, 0, 9, 0.00,60.00,Saturday
2695,-5.954081172034251
1929,18.000060669049046
3063,1442677.5120118934
3064,0.0
2,7, 1, 7, 0,10, 0.00,60.00,Saturday
2695,-5.9605714137827479
1929,18.00004652482324
3063,1492942.6085384419
3064,0.0
2,7, 1, 7, 0,11, 0.00,60.00,Saturday
2695,-5.966166196198144
1929,18.00003429323525
3063,1548664.841549914
3064,0.0
2,7, 1, 7, 0,12, 0.00,60.00,Saturday
2695,-5.970503328876703
1929,18.000023904601905
3063,1599888.3494562095
3064,0.0
2,7, 1, 7, 0,13, 0.00,60.00,Saturday
2695,-5.972877616576663
1929,18.00000188380099
3063,1647427.129060034
3064,0.0
2,7, 1, 7, 0,14, 0.00,60.00,Saturday
2695,-5.972347261107745
1929,18.000000215628075
3063,1687269.5382060332
3064,0.0
2,7, 1, 7, 0,15, 0.00,60.00,Saturday
2695,-5.968096852335653
1929,18.000000135872676
3063,1714699.4013018823
3064,0.0
2,7, 1, 7, 0,16, 0.00,60.00,Saturday
2695,-5.959307590552242
1929,18.000000087835436
3063,1708140.6225309163
3064,0.0
2,7, 1, 7, 0,17, 0.00,60.00,Saturday
2695,-5.947511283870694
1929,18.00000007201224
3063,1632790.258167785
3064,0.0
2,7, 1, 7, 0,18, 0.00,60.00,Saturday
2695,-5.9361682417665559
1929,18.000000068547707
3063,1534515.934783026
3064,0.0
2,7, 1, 7, 0,19, 0.00,60.00,Saturday
2695,-6.396496527555385
1929,18.000000067093727
3063,1444274.6758050835
3064,0.0
2,7, 1, 7, 0,20, 0.00,60.00,Saturday
2695,-6.385069192002415
1929,18.000000066990496
3063,1367126.2310504819
3064,0.0
2,7, 1, 7, 0,21, 0.00,60.00,Saturday
2695,-6.375200125121119
1929,18.00000006842866
3063,1303047.7287943073
3064,0.0
2,7, 1, 7, 0,22, 0.00,60.00,Saturday
2695,-6.3674072551381519
1929,18.000000071386407
3063,1253672.9145950759
3064,0.0
2,7, 1, 7, 0,23, 0.00,60.00,Saturday
2695,-6.361793405155132
1929,18.00000007525766
3063,1217908.0871279203
3064,0.0
2,7, 1, 7, 0,24, 0.00,60.00,Saturday
2695,-6.358375843634146
1929,18.000001384674296
3063,1194521.8738916745
3064,0.0
2,8, 1, 8, 0, 1, 0.00,60.00,Sunday
2695,-6.356873075496732
1929,18.000002971506978
3063,1189721.5506624026
3064,0.0
2,8, 1, 8, 0, 2, 0.00,60.00,Sunday
2695,-6.356507899676718
1929,18.000004438027096
3063,1195428.9180324928
3064,0.0
2,8, 1, 8, 0, 3, 0.00,60.00,Sunday
2695,-6.3571067524709019
1929,18.000010659215396
3063,1206548.864312762
3064,0.0
2,8, 1, 8, 0, 4, 0.00,60.00,Sunday
2695,-6.358616381935112
1929,18.000017025746918
3063,1223946.255427014
3064,0.0
2,8, 1, 8, 0, 5, 0.00,60.00,Sunday
2695,-6.360876789578918
1929,18.000016429929109
3063,1249243.0418250764
3064,0.0
2,8, 1, 8, 0, 6, 0.00,60.00,Sunday
2695,-6.363633017477145
1929,18.000023216628266
3063,1274886.9572560292
3064,0.0
2,8, 1, 8, 0, 7, 0.00,60.00,Sunday
2695,-6.576079050896034
1929,18.00003395400474
3063,1302163.0036012503
3064,0.0
2,8, 1, 8, 0, 8, 0.00,60.00,Sunday
2695,-6.580169356817586
1929,18.00004083691557
3063,1333388.4974308375
3064,0.0
2,8, 1, 8, 0, 9, 0.00,60.00,Sunday
2695,-6.080297447435341
1929,18.000040078566216
3063,1369571.4935559296
3064,0.0
2,8, 1, 8, 0,10, 0.00,60.00,Sunday
2695,-6.084036269413825
1929,18.000032863154144
3063,1408935.8604355753
3064,0.0
2,8, 1, 8, 0,11, 0.00,60.00,Sunday
2695,-6.087637033560024
1929,18.000011117916278
3063,1453279.1844962417
3064,0.0
2,8, 1, 8, 0,12, 0.00,60.00,Sunday
2695,-6.090754432704759
1929,18.00000014812244
3063,1491150.467603643
3064,0.0
2,8, 1, 8, 0,13, 0.00,60.00,Sunday
2695,-6.093481752151589
1929,18.00000360595592
3063,1518575.7187331557
3064,0.0
2,8, 1, 8, 0,14, 0.00,60.00,Sunday
2695,-6.0956239619977599
1929,18.000000857692119
3063,1541085.9518136173
3064,0.0
2,8, 1, 8, 0,15, 0.00,60.00,Sunday
2695,-6.09660374440076
1929,18.00000010811804
3063,1553356.6860584156
3064,0.0
2,8, 1, 8, 0,16, 0.00,60.00,Sunday
2695,-6.0959176842195
1929,18.000000097170884
3063,1549632.2075114458
3064,0.0
2,8, 1, 8, 0,17, 0.00,60.00,Sunday
2695,-6.093388488773587
1929,18.00000008886104
3063,1525897.2557711877
3064,0.0
2,8, 1, 8, 0,18, 0.00,60.00,Sunday
2695,-6.08939431119553
1929,18.00000008499624
3063,1487914.9496831508
3064,0.0
2,8, 1, 8, 0,19, 0.00,60.00,Sunday
2695,-6.5900710108604179
1929,18.000000086294077
3063,1434513.7458192395
3064,0.0
2,8, 1, 8, 0,20, 0.00,60.00,Sunday
2695,-6.58432637378839
1929,18.000000089162936
3063,1381447.0446659963
3064,0.0
2,8, 1, 8, 0,21, 0.00,60.00,Sunday
2695,-6.579587005630386
1929,18.000000091327974
3063,1347602.0217614549
3064,0.0
2,8, 1, 8, 0,22, 0.00,60.00,Sunday
2695,-6.575632958577001
1929,18.000000091260657
3063,1335531.420662337
3064,0.0
2,8, 1, 8, 0,23, 0.00,60.00,Sunday
2695,-6.572134521059474
1929,18.00000009405056
3063,1323354.0829409837
3064,0.0
2,8, 1, 8, 0,24, 0.00,60.00,Sunday
2695,-6.5698977086485839
1929,18.00000010543548
3063,1309274.2793323999
3064,0.0
2,9, 1, 9, 0, 1, 0.00,60.00,Monday
2695,-6.569685791859873
1929,18.000002746540944
3063,1299356.7676481209
3064,0.0
2,9, 1, 9, 0, 2, 0.00,60.00,Monday
2695,-6.571059497020671
1929,18.000020304965689
3063,1302980.0764743793
3064,0.0
2,9, 1, 9, 0, 3, 0.00,60.00,Monday
2695,-6.573237030324719
1929,18.000026978993373
3063,1320401.6305116565
3064,0.0
2,9, 1, 9, 0, 4, 0.00,60.00,Monday
2695,-6.5759804642528929
1929,18.000020222050016
3063,1347028.8438905553
3064,0.0
2,9, 1, 9, 0, 5, 0.00,60.00,Monday
2695,-6.578917182118144
1929,18.000009210035655