Program Version,EnergyPlus, Version 8.7.0-78a111df4a, YMD=2019.05.28 05:48
1,5,Environment Title[],Latitude[deg],Longitude[deg],Time Zone[],Elevation[m]
2,6,Day of Simulation[],Month[],Day of Month[],DST Indicator[1=yes 0=no],Hour[],StartMinute[],EndMinute[],DayType
3,3,Cumulative Day of Simulation[],Month[],Day of Month[],DST Indicator[1=yes 0=no],DayType  ! When Daily Report Variables Requested
4,2,Cumulative Days of Simulation[],Month[]  ! When Monthly Report Variables Requested
5,1,Cumulative Days of Simulation[] ! When Run Period Report Variables Requested
4826,1,BEDROOM2.2,Zone Ideal Loads Zone Total Heating Energy [J] !Hourly
4827,1,BEDROOM2.2,Zone Ideal Loads Zone Total Cooling Energy [J] !Hourly
4973,1,BEDROOM2.2,Zone Thermal Comfort Fanger Model PMV [] !Hourly
End of Data Dictionary
1,RUNPERIOD,  29.58, 106.47,   8.00, 259.10
2,1, 1, 1, 0, 1, 0.00,60.00,Thursday
4973,-1.1039258603037799
4826,2511568.3091128806
4827,9.032476100401255e-8
2,1, 1, 1, 0, 2, 0.00,60.00,Thursday
4973,-1.0958494236102075
4826,2516962.1723157826
4827,5.190689648958369
2,1, 1, 1, 0, 3, 0.00,60.00,Thursday
4973,-1.0874433043626078
4826,2448932.5175789168
4827,1.075363798008766e-7
2,1, 1, 1, 0, 4, 0.00,60.00,Thursday
4973,-1.0803732755441698
4826,2413074.1616915476
4827,5.0033577281283217e-8
2,1, 1, 1, 0, 5, 0.00,60.00,Thursday
4973,-1.0764835992845315
4826,2426959.849967453
4827,2.291926648467779e-8
2,1, 1, 1, 0, 6, 0.00,60.00,Thursday
4973,-1.0757078736870625
4826,2446265.51982658
4827,1.0180656317970716e-7
2,1, 1, 1, 0, 7, 0.00,60.00,Thursday
4973,-1.0770218186885834
4826,2460647.668932357
4827,4.0313352656085047e-8
2,1, 1, 1, 0, 8, 0.00,60.00,Thursday
4973,-1.7074432407746685
4826,0.0
4827,0.0
2,1, 1, 1, 0, 9, 0.00,60.00,Thursday
4973,-2.1062343779117307
4826,0.0
4827,0.0
2,1, 1, 1, 0,10, 0.00,60.00,Thursday
4973,-2.1445081680987378
4826,0.0
4827,0.0
2,1, 1, 1, 0,11, 0.00,60.00,Thursday
4973,-2.152196516269434
4826,0.0
4827,0.0
2,1, 1, 1, 0,12, 0.00,60.00,Thursday
4973,-2.149229723098513
4826,0.0
4827,0.0
2,1, 1, 1, 0,13, 0.00,60.00,Thursday
4973,-2.133817647859843
4826,0.0
4827,0.0
2,1, 1, 1, 0,14, 0.00,60.00,Thursday
4973,-2.100367754602351
4826,0.0
4827,0.0
2,1, 1, 1, 0,15, 0.00,60.00,Thursday
4973,-2.056891762845207
4826,0.0
4827,0.0
2,1, 1, 1, 0,16, 0.00,60.00,Thursday
4973,-1.9997835333131798
4826,0.0
4827,0.0
2,1, 1, 1, 0,17, 0.00,60.00,Thursday
4973,-1.9332217746281993
4826,0.0
4827,0.0
2,1, 1, 1, 0,18, 0.00,60.00,Thursday
4973,-1.8745386999816014
4826,0.0
4827,0.0
2,1, 1, 1, 0,19, 0.00,60.00,Thursday
4973,-1.825637466936615
4826,0.0
4827,0.0
2,1, 1, 1, 0,20, 0.00,60.00,Thursday
4973,-1.7974108516240637
4826,0.0
4827,0.0
2,1, 1, 1, 0,21, 0.00,60.00,Thursday
4973,-1.8368537419877396
4826,0.0
4827,0.0
2,1, 1, 1, 0,22, 0.00,60.00,Thursday
4973,-1.3038579287890305
4826,3147072.8851425989
4827,9.977725312637631e-8
2,1, 1, 1, 0,23, 0.00,60.00,Thursday
4973,-1.1157719353337395
4826,2411372.1804296609
4827,1.0129497240995989e-8
2,1, 1, 1, 0,24, 0.00,60.00,Thursday
4973,-1.1104124735364574
4826,2302000.182489339
4827,4.297362465877086e-9
2,2, 1, 2, 0, 1, 0.00,60.00,Friday
4973,-1.107033167930898
4826,2487701.564966768
4827,7.144194569264073e-8
2,2, 1, 2, 0, 2, 0.00,60.00,Friday
4973,-1.104880374495988
4826,2480356.451264903
4827,1.1162910595885478e-7
2,2, 1, 2, 0, 3, 0.00,60.00,Friday
4973,-1.1030672525670425
4826,2479291.466851321
4827,3.980176188633777e-8
2,2, 1, 2, 0, 4, 0.00,60.00,Friday
4973,-1.0990600321986133
4826,2470526.798676714
4827,5.9549165598582479e-8
2,2, 1, 2, 0, 5, 0.00,60.00,Friday
4973,-1.0944245070946726
4826,2455154.616854136
4827,9.096083886106499e-8
2,2, 1, 2, 0, 6, 0.00,60.00,Friday
4973,-1.089815616444298
4826,2443661.2514131285
4827,6.476739145000465e-8
2,2, 1, 2, 0, 7, 0.00,60.00,Friday
4973,-1.0853622726931143
4826,2428216.9616904004
4827,5.197762220632285e-8
2,2, 1, 2, 0, 8, 0.00,60.00,Friday
4973,-1.676902115254829
4826,0.0
4827,0.0
2,2, 1, 2, 0, 9, 0.00,60.00,Friday
4973,-2.029413047495683
4826,0.0
4827,0.0
2,2, 1, 2, 0,10, 0.00,60.00,Friday
4973,-2.011114866257363
4826,0.0
4827,0.0
2,2, 1, 2, 0,11, 0.00,60.00,Friday
4973,-1.9950922053710727
4826,0.0
4827,0.0
2,2, 1, 2, 0,12, 0.00,60.00,Friday
4973,-1.9840298176016902
4826,0.0
4827,0.0
2,2, 1, 2, 0,13, 0.00,60.00,Friday
4973,-1.9715508539486458
4826,0.0
4827,0.0
2,2, 1, 2, 0,14, 0.00,60.00,Friday
4973,-1.9581843162650692
4826,0.0
4827,0.0
2,2, 1, 2, 0,15, 0.00,60.00,Friday
4973,-1.9333971355922984
4826,0.0
4827,0.0
2,2, 1, 2, 0,16, 0.00,60.00,Friday
4973,-1.8998723794554722
4826,0.0
4827,0.0
2,2, 1, 2, 0,17, 0.00,60.00,Friday
4973,-1.8791046573334405
4826,0.0
4827,0.0
2,2, 1, 2, 0,18, 0.00,60.00,Friday
4973,-1.9014616918030947
4826,0.0
4827,0.0
2,2, 1, 2, 0,19, 0.00,60.00,Friday
4973,-1.942876146446366
4826,0.0
4827,0.0
2,2, 1, 2, 0,20, 0.00,60.00,Friday
4973,-1.9685497570459459
4826,0.0
4827,0.0
2,2, 1, 2, 0,21, 0.00,60.00,Friday
4973,-1.9941721493593759
4826,0.0
4827,0.0
2,2, 1, 2, 0,22, 0.00,60.00,Friday
4973,-1.3517736972988195
4826,3452159.254528486
4827,4.965841071680188e-8
2,2, 1, 2, 0,23, 0.00,60.00,Friday
4973,-1.1234049119583416
4826,2439825.632364557
4827,7.837570592528209e-8
2,2, 1, 2, 0,24, 0.00,60.00,Friday
4973,-1.1050991765775216
4826,2316583.2955641106
4827,5.310312189976685e-8
2,3, 1, 3, 0, 1, 0.00,60.00,Saturday
4973,-1.096944530860071
4826,2514887.05427227
4827,7.433584414684447e-8
2,3, 1, 3, 0, 2, 0.00,60.00,Saturday
4973,-1.0936897116129237
4826,2543209.435209777
4827,6.333493729471229e-8
2,3, 1, 3, 0, 3, 0.00,60.00,Saturday
4973,-1.0950812986548453
4826,2550885.0178442045
4827,1.4038050721865148e-7
2,3, 1, 3, 0, 4, 0.00,60.00,Saturday
4973,-1.0962186213815195
4826,2544179.8420750556
4827,9.044924809131771e-8
2,3, 1, 3, 0, 5, 0.00,60.00,Saturday
4973,-1.0958583991330522
4826,2527957.8543666389
4827,6.640448191319592e-8
2,3, 1, 3, 0, 6, 0.00,60.00,Saturday
4973,-1.0939602999636145
4826,2497060.624320226
4827,2.2714630176778884e-8
2,3, 1, 3, 0, 7, 0.00,60.00,Saturday
4973,-1.0902889005533408
4826,2448504.5198350495
4827,6.169784683152102e-8
2,3, 1, 3, 0, 8, 0.00,60.00,Saturday
4973,-1.0847138401038513
4826,2395617.665249562
4827,9.685777513368521e-8
2,3, 1, 3, 0, 9, 0.00,60.00,Saturday
4973,-1.0799401101172266
4826,2395521.4427793265
4827,5.2386894822120669e-8
2,3, 1, 3, 0,10, 0.00,60.00,Saturday
4973,-1.0750071861731226
4826,2341781.4705137449
4827,6.282334652496502e-8
2,3, 1, 3, 0,11, 0.00,60.00,Saturday
4973,-1.07092292364472
4826,2348601.398795598
4827,3.693685357575305e-8
2,3, 1, 3, 0,12, 0.00,60.00,Saturday
4973,-1.067595612000524
4826,2303085.6715267684
4827,6.589289114344865e-8
2,3, 1, 3, 0,13, 0.00,60.00,Saturday
4973,-1.0637590447244359
4826,2262217.607014641
4827,8.461711331619881e-8
2,3, 1, 3, 0,14, 0.00,60.00,Saturday
4973,-1.0597453368327324
4826,2225061.328790941
4827,1.052853804139886e-7
2,3, 1, 3, 0,15, 0.00,60.00,Saturday
4973,-1.054963397230407
4826,2156224.394566411
4827,6.906475391588174e-8
2,3, 1, 3, 0,16, 0.00,60.00,Saturday
4973,-1.0486837665682192
4826,2137941.871505076
4827,5.729816621169448e-8
2,3, 1, 3, 0,17, 0.00,60.00,Saturday
4973,-1.0436933552832888
4826,2166147.650894459
4827,5.7912075135391208e-8
2,3, 1, 3, 0,18, 0.00,60.00,Saturday
4973,-1.039262654863077
4826,2148003.2946946995
4827,5.32054400537163e-9
2,3, 1, 3, 0,19, 0.00,60.00,Saturday
4973,-1.032822652653791
4826,2114394.015647773
4827,2.9262992029543967e-8
2,3, 1, 3, 0,20, 0.00,60.00,Saturday
4973,-1.0256124985485198
4826,1972444.9930754235
4827,1.0098801794811152e-7
2,3, 1, 3, 0,21, 0.00,60.00,Saturday
4973,-1.0177883682259259
4826,1901953.6270052335
4827,7.029257176327519e-8
2,3, 1, 3, 0,22, 0.00,60.00,Saturday
4973,-1.009811854583208
4826,1874946.25428823
4827,9.454197424929589e-8
2,3, 1, 3, 0,23, 0.00,60.00,Saturday
4973,-1.0034393042372863
4826,1862088.6341064869
4827,5.688889359589666e-8
2,3, 1, 3, 0,24, 0.00,60.00,Saturday
4973,-0.9973922876028318
4826,1795613.3988001396
4827,1.1766587704187259e-8
2,4, 1, 4, 0, 1, 0.00,60.00,Sunday
4973,-0.9937711520513575
4826,1931867.0391326394
4827,6.610634457679845
2,4, 1, 4, 0, 2, 0.00,60.00,Sunday
4973,-0.9894535891342278
4826,1931911.503911924
4827,1.0467147149029188e-7
2,4, 1, 4, 0, 3, 0.00,60.00,Sunday
4973,-0.9862816977423392
4826,1912889.316739635
4827,5.228457666817121e-8
2,4, 1, 4, 0, 4, 0.00,60.00,Sunday
4973,-0.9830996373259688
4826,1899207.7923184359
4827,7.489688869100064e-8
2,4, 1, 4, 0, 5, 0.00,60.00,Sunday
4973,-0.9796657423246186
4826,1890218.0509363292
4827,3.6425262806005779e-8
2,4, 1, 4, 0, 6, 0.00,60.00,Sunday
4973,-0.9759511835501727
4826,1885412.633394149
4827,2.7421265258453788e-8
2,4, 1, 4, 0, 7, 0.00,60.00,Sunday
4973,-0.9726829489165988
4826,1879412.6772643906
4827,1.0999201549566351e-7
2,4, 1, 4, 0, 8, 0.00,60.00,Sunday
4973,-0.9701064454555235
4826,1868573.486253016
4827,5.093738764117006e-8
2,4, 1, 4, 0, 9, 0.00,60.00,Sunday
4973,-0.9696313437599549
4826,1908143.6819444206
4827,1.2083773981430569e-7
2,4, 1, 4, 0,10, 0.00,60.00,Sunday
4973,-0.9697922117398766
4826,1881886.858996524
4827,6.169784683152102e-8
2,4, 1, 4, 0,11, 0.00,60.00,Sunday
4973,-0.9703820068510317
4826,1912870.344866131
4827,3.427658157306723e-8
2,4, 1, 4, 0,12, 0.00,60.00,Sunday
4973,-0.9730553536797497
4826,1881119.1668892198
4827,1.2687451089732349e-8
2,4, 1, 4, 0,13, 0.00,60.00,Sunday
4973,-0.9743945146565286
4826,1841249.2757344894
4827,5.105675882077776e-8
2,4, 1, 4, 0,14, 0.00,60.00,Sunday
4973,-0.9749435048816721
4826,1788162.3754767709
4827,2.916067387559451e-8
2,4, 1, 4, 0,15, 0.00,60.00,Sunday
4973,-0.9722770856735463
4826,1682290.8862496669
4827,3.944364834751468e-8
2,4, 1, 4, 0,16, 0.00,60.00,Sunday
4973,-0.9646376110602233
4826,1629881.8577298648
4827,3.923901203961577e-8
2,4, 1, 4, 0,17, 0.00,60.00,Sunday
4973,-0.9565652545792297
4826,1663505.1731011237
4827,5.6633098211023028e-8
2,4, 1, 4, 0,18, 0.00,60.00,Sunday
4973,-0.9521561964744116
4826,1674083.7109646397
4827,4.1387693272554318e-8
2,4, 1, 4, 0,19, 0.00,60.00,Sunday
4973,-0.9481500087662222
4826,1685508.284360636
4827,3.70391717297025e-8
2,4, 1, 4, 0,20, 0.00,60.00,Sunday
4973,-0.9441232435478357
4826,1587645.1468524177
4827,4.6912873585824857e-8
2,4, 1, 4, 0,21, 0.00,60.00,Sunday
4973,-0.9417635347713684
4826,1553234.8552668188
4827,6.333493729471229e-8
2,4, 1, 4, 0,22, 0.00,60.00,Sunday
4973,-0.9395997815402231
4826,1548601.8024084487
4827,1.8110313249053435e-8
2,4, 1, 4, 0,23, 0.00,60.00,Sunday
4973,-0.9374325603080735
4826,1543556.0838173847
4827,4.000639819423668e-8
2,4, 1, 4, 0,24, 0.00,60.00,Sunday
4973,-0.93508974198391
4826,1477078.1313487897
4827,2.1026380636612886e-8
2,5, 1, 5, 0, 1, 0.00,60.00,Monday
4973,-0.9350422296459077
4826,1610036.1977987544
4827,0.5918018476847919
2,5, 1, 5, 0, 2, 0.00,60.00,Monday
4973,-0.9341683197917041
4826,1605271.956725629
4827,4.629896466212813e-8
2,5, 1, 5, 0, 3, 0.00,60.00,Monday
4973,-0.9343438282496794
4826,1620490.1575209015
4827,2.3993607101147064e-8
2,5, 1, 5, 0, 4, 0.00,60.00,Monday
4973,-0.936271031680841
4826,1638397.7675722864
4827,5.494484867085703e-8
2,5, 1, 5, 0, 5, 0.00,60.00,Monday
4973,-0.9393532210323783
4826,1650214.477083174
4827,7.673861546209082e-8
2,5, 1, 5, 0, 6, 0.00,60.00,Monday
4973,-0.9420823377099337
4826,1663000.9582050814
4827,1.3710632629226894e-8
2,5, 1, 5, 0, 7, 0.00,60.00,Monday
4973,-0.9446884597881756
4826,1677009.5656726876
4827,2.0821744328713977e-8
2,5, 1, 5, 0, 8, 0.00,60.00,Monday
4973,-1.4615545182770822
4826,0.0
4827,0.0
2,5, 1, 5, 0, 9, 0.00,60.00,Monday
4973,-1.7492129860506518
4826,0.0
4827,0.0
2,5, 1, 5, 0,10, 0.00,60.00,Monday
4973,-1.7715721667536447
4826,0.0
4827,0.0
2,5, 1, 5, 0,11, 0.00,60.00,Monday
4973,-1.7841737208681655
4826,0.0
4827,0.0
2,5, 1, 5, 0,12, 0.00,60.00,Monday
4973,-1.7941128619326395
4826,0.0
4827,0.0
2,5, 1, 5, 0,13, 0.00,60.00,Monday
4973,-1.799365650076806
4826,0.0
4827,0.0
2,5, 1, 5, 0,14, 0.00,60.00,Monday
4973,-1.7975531956647446
4826,0.0
4827,0.0
2,5, 1, 5, 0,15, 0.00,60.00,Monday
4973,-1.7935297559886912
4826,0.0
4827,0.0
2,5, 1, 5, 0,16, 0.00,60.00,Monday
4973,-1.787371322821806
4826,0.0
4827,0.0
2,5, 1, 5, 0,17, 0.00,60.00,Monday
4973,-1.7853864093967025
4826,0.0
4827,0.0
2,5, 1, 5, 0,18, 0.00,60.00,Monday
4973,-1.7849511049409373
4826,0.0
4827,0.0
2,5, 1, 5, 0,19, 0.00,60.00,Monday
4973,-1.787090196996607
4826,0.0
4827,0.0
2,5, 1, 5, 0,20, 0.00,60.00,Monday
4973,-1.779950525240965
4826,0.0
4827,0.0
2,5, 1, 5, 0,21, 0.00,60.00,Monday
4973,-1.7942909885071439
4826,0.0
4827,0.0
2,5, 1, 5, 0,22, 0.00,60.00,Monday
4973,-1.2438665193050147
4826,2830557.3088252407
4827,4.953733423462836e-8
2,5, 1, 5, 0,23, 0.00,60.00,Monday
4973,-1.0512159554383423
4826,1972166.2306758464
4827,7.776179700158537e-9
2,5, 1, 5, 0,24, 0.00,60.00,Monday
4973,-1.0389552248949774
4826,1858793.3469580194
4827,3.724380803760141e-8
2,6, 1, 6, 0, 1, 0.00,60.00,Tuesday
4973,-1.029687899885392
4826,2043407.2434271756
4827,5.974522046933854
2,6, 1, 6, 0, 2, 0.00,60.00,Tuesday
4973,-1.0221641708364178
4826,2041012.7904774093
4827,8.594724931754172e-9
2,6, 1, 6, 0, 3, 0.00,60.00,Tuesday
4973,-1.014228014003498
4826,1996963.9829726793
4827,4.256435204297304e-8
2,6, 1, 6, 0, 4, 0.00,60.00,Tuesday
4973,-1.006599181260031
4826,1965424.6820721806
4827,9.085852070711553e-8
2,6, 1, 6, 0, 5, 0.00,60.00,Tuesday
4973,-0.99965209096181
4826,1951506.4216890303
4827,9.11654751689639e-8
2,6, 1, 6, 0, 6, 0.00,60.00,Tuesday
4973,-0.9932767939803473
4826,1934699.5238442426
4827,8.492406777804718e-8
2,6, 1, 6, 0, 7, 0.00,60.00,Tuesday
4973,-0.9879142964328171
4826,1919637.7142495854
4827,8.21614776214119e-8
2,6, 1, 6, 0, 8, 0.00,60.00,Tuesday
4973,-1.4993842343025159
4826,0.0
4827,0.0
2,6, 1, 6, 0, 9, 0.00,60.00,Tuesday
4973,-1.8137771132774657
4826,0.0
4827,0.0
2,6, 1, 6, 0,10, 0.00,60.00,Tuesday
4973,-1.8120424583135948
4826,0.0
4827,0.0
2,6, 1, 6, 0,11, 0.00,60.00,Tuesday
4973,-1.7992661991127284
4826,0.0
4827,0.0
2,6, 1, 6, 0,12, 0.00,60.00,Tuesday
4973,-1.7828636524597248
4826,0.0
4827,0.0
2,6, 1, 6, 0,13, 0.00,60.00,Tuesday
4973,-1.7582428618677635
4826,0.0
4827,0.0
2,6, 1, 6, 0,14, 0.00,60.00,Tuesday
4973,-1.7202833913567497
4826,0.0
4827,0.0
2,6, 1, 6, 0,15, 0.00,60.00,Tuesday
4973,-1.6785028176183253
4826,0.0
4827,0.0
2,6, 1, 6, 0,16, 0.00,60.00,Tuesday
4973,-1.6229346406289609
4826,0.0
4827,0.0
2,6, 1, 6, 0,17, 0.00,60.00,Tuesday
4973,-1.5861415618050883
4826,0.0
4827,0.0
2,6, 1, 6, 0,18, 0.00,60.00,Tuesday
4973,-1.5998799181702377
4826,0.0
4827,0.0
2,6, 1, 6, 0,19, 0.00,60.00,Tuesday
4973,-1.6344983906527893
4826,0.0
4827,0.0
2,6, 1, 6, 0,20, 0.00,60.00,Tuesday
4973,-1.6538676965617963
4826,0.0
4827,0.0
2,6, 1, 6, 0,21, 0.00,60.00,Tuesday
4973,-1.6840678637306379
4826,0.0
4827,0.0
2,6, 1, 6, 0,22, 0.00,60.00,Tuesday
4973,-1.189528934574805
4826,2598797.320575115
4827,5.366416644392302e-8
2,6, 1, 6, 0,23, 0.00,60.00,Tuesday
4973,-1.0163950027233467
4826,1875202.2443180043
4827,6.394884621840902e-8
2,6, 1, 6, 0,24, 0.00,60.00,Tuesday
4973,-1.0052396394731767
4826,1771446.2256219467
4827,5.121023605170194e-8
2,7, 1, 7, 0, 1, 0.00,60.00,Wednesday
4973,-0.9998866292634914
4826,1963644.3186883794
4827,6.55654730508104e-8
2,7, 1, 7, 0, 2, 0.00,60.00,Wednesday
4973,-0.9965666797300581
4826,1976374.7061744608
4827,7.111111699487083e-8
2,7, 1, 7, 0, 3, 0.00,60.00,Wednesday
4973,-0.9959855961578906
4826,2003852.3615489503
4827,7.991047823452391e-8
2,7, 1, 7, 0, 4, 0.00,60.00,Wednesday
4973,-0.9972285297187639
4826,2048386.2583157325
4827,2.476099325576797e-8
2,7, 1, 7, 0, 5, 0.00,60.00,Wednesday
4973,-1.0005157368608758
4826,2108563.9949393325
4827,4.113189788768068e-8
2,7, 1, 7, 0, 6, 0.00,60.00,Wednesday
4973,-1.0055180944688476
4826,2166315.3048490907
4827,8.840288501232863e-8
2,7, 1, 7, 0, 7, 0.00,60.00,Wednesday
4973,-1.010671955125249
4826,2212996.2681637399
4827,7.182734407251701e-8
2,7, 1, 7, 0, 8, 0.00,60.00,Wednesday
4973,-1.6584809458303008
4826,0.0
4827,0.0
2,7, 1, 7, 0, 9, 0.00,60.00,Wednesday
4973,-2.0110188612531996
4826,0.0
4827,0.0
2,7, 1, 7, 0,10, 0.00,60.00,Wednesday
4973,-2.03814528402114
4826,0.0
4827,0.0
2,7, 1, 7, 0,11, 0.00,60.00,Wednesday
4973,-2.0420732183158947
4826,0.0
4827,0.0
2,7, 1, 7, 0,12, 0.00,60.00,Wednesday
4973,-2.0233988613152324
4826,0.0
4827,0.0
2,7, 1, 7, 0,13, 0.00,60.00,Wednesday
4973,-1.9773002689619952
4826,0.0
4827,0.0
2,7, 1, 7, 0,14, 0.00,60.00,Wednesday
4973,-1.9023368107927743
4826,0.0
4827,0.0
2,7, 1, 7, 0,15, 0.00,60.00,Wednesday
4973,-1.803776755113276
4826,0.0
4827,0.0
2,7, 1, 7, 0,16, 0.00,60.00,Wednesday
4973,-1.6826281013841656
4826,0.0
4827,0.0
2,7, 1, 7, 0,17, 0.00,60.00,Wednesday
4973,-1.599174492760265
4826,0.0
4827,0.0
2,7, 1, 7, 0,18, 0.00,60.00,Wednesday
4973,-1.614488378280087
4826,0.0
4827,0.0
2,7, 1, 7, 0,19, 0.00,60.00,Wednesday
4973,-1.6445517495724834
4826,0.0
4827,0.0
2,7, 1, 7, 0,20, 0.00,60.00,Wednesday
4973,-1.6635485160596933
4826,0.0
4827,0.0
2,7, 1, 7, 0,21, 0.00,60.00,Wednesday
4973,-1.6875919023197075
4826,0.0
4827,0.0
2,7, 1, 7, 0,22, 0.00,60.00,Wednesday
4973,-1.21255279397473
4826,2586310.22476148
4827,2.884689820348285e-8
2,7, 1, 7, 0,23, 0.00,60.00,Wednesday
4973,-1.0483793642350155
4826,1869918.7996922252
4827,6.916707206983119e-8
2,7, 1, 7, 0,24, 0.00,60.00,Wednesday
4973,-1.036460211306504
4826,1770031.1266874886
4827,7.586891115352046e-8
2,8, 1, 8, 0, 1, 0.00,60.00,Thursday
4973,-1.0297878919744659
4826,1963318.3954583258
4827,5.979911423180185e-8
2,8, 1, 8, 0, 2, 0.00,60.00,Thursday
4973,-1.0239448933311626
4826,1965123.5981195835
4827,6.80415723763872e-8
2,8, 1, 8, 0, 3, 0.00,60.00,Thursday
4973,-1.0188544766662882
4826,1981761.275664378
4827,8.482174962409772e-8
2,8, 1, 8, 0, 4, 0.00,60.00,Thursday
4973,-1.0145681552405197
4826,1996502.265064695
4827,6.896243576193229e-8
2,8, 1, 8, 0, 5, 0.00,60.00,Thursday
4973,-1.0108041252113623
4826,2000828.6916170442
4827,2.9672264645341785e-8
2,8, 1, 8, 0, 6, 0.00,60.00,Thursday
4973,-1.0069919218739956
4826,2004261.035689282
4827,9.822542779147625e-8
2,8, 1, 8, 0, 7, 0.00,60.00,Thursday
4973,-1.0041819700231587
4826,1999211.5027570916
4827,1.0988969734171406e-7
2,8, 1, 8, 0, 8, 0.00,60.00,Thursday
4973,-1.5319324546079927
4826,0.0
4827,0.0
2,8, 1, 8, 0, 9, 0.00,60.00,Thursday
4973,-1.8535469341411235
4826,0.0
4827,0.0
2,8, 1, 8, 0,10, 0.00,60.00,Thursday
4973,-1.8523702197030077
4826,0.0
4827,0.0
2,8, 1, 8, 0,11, 0.00,60.00,Thursday
4973,-1.8440333896496255
4826,0.0
4827,0.0
2,8, 1, 8, 0,12, 0.00,60.00,Thursday
4973,-1.824492091069724
4826,0.0
4827,0.0
2,8, 1, 8, 0,13, 0.00,60.00,Thursday
4973,-1.8021182931730398
4826,0.0
4827,0.0
2,8, 1, 8, 0,14, 0.00,60.00,Thursday
4973,-1.7783285700011334
4826,0.0
4827,0.0
2,8, 1, 8, 0,15, 0.00,60.00,Thursday
4973,-1.7552996336129148
4826,0.0
4827,0.0
2,8, 1, 8, 0,16, 0.00,60.00,Thursday
4973,-1.7355096650679359
4826,0.0
4827,0.0
2,8, 1, 8, 0,17, 0.00,60.00,Thursday
4973,-1.7190421795061113
4826,0.0
4827,0.0
2,8, 1, 8, 0,18, 0.00,60.00,Thursday
4973,-1.719074208707898
4826,0.0
4827,0.0
2,8, 1, 8, 0,19, 0.00,60.00,Thursday
4973,-1.735171852841742
4826,0.0
4827,0.0
2,8, 1, 8, 0,20, 0.00,60.00,Thursday
4973,-1.7479111608382639
4826,0.0
4827,0.0
2,8, 1, 8, 0,21, 0.00,60.00,Thursday
4973,-1.759988008194488
4826,0.0
4827,0.0
2,8, 1, 8, 0,22, 0.00,60.00,Thursday
4973,-1.2300916865172047
4826,2685933.0475471455
4827,7.155108505685348e-8
2,8, 1, 8, 0,23, 0.00,60.00,Thursday
4973,-1.0450982836114749
4826,1900392.2577738509
4827,4.1745806811377409e-8
2,8, 1, 8, 0,24, 0.00,60.00,Thursday
4973,-1.0286658717792028
4826,1799632.9261721073
4827,2.6909674488706515e-8
2,9, 1, 9, 0, 1, 0.00,60.00,Friday
4973,-1.0206728087153565
4826,2006696.361969752
4827,5.980837158858776e-8
2,9, 1, 9, 0, 2, 0.00,60.00,Friday
4973,-1.0166827896122837
4826,2026914.4386200542
4827,2.9058355721645058e-8
2,9, 1, 9, 0, 3, 0.00,60.00,Friday
4973,-1.0134720386481447
4826,2027263.7015186405
4827,7.152038961066865e-8
2,9, 1, 9, 0, 4, 0.00,60.00,Friday
4973,-1.0095814829425592
4826,2011577.3441652968
4827,5.586571205640212e-8
2,9, 1, 9, 0, 5, 0.00,60.00,Friday
4973,-1.0050405967861048
4826,1995358.0816892277
4827,9.935092748492025e-8
2,9, 1, 9, 0, 6, 0.00,60.00,Friday
4973,-1.0004865598993296
4826,1981836.3548476678
4827,8.236611392931082e-8
2,9, 1, 9, 0, 7, 0.00,60.00,Friday
4973,-0.9969848114049982
4826,1969832.0177599355
4827,7.980816008057445e-8
2,9, 1, 9, 0, 8, 0.00,60.00,Friday
4973,-1.5153149078499049
4826,0.0
4827,0.0
2,9, 1, 9, 0, 9, 0.00,60.00,Friday
4973,-1.840714588274885
4826,0.0
4827,0.0
2,9, 1, 9, 0,10, 0.00,60.00,Friday
4973,-1.8562320522000402
4826,0.0
4827,0.0
2,9, 1, 9, 0,11, 0.00,60.00,Friday
4973,-1.8601531670521443
4826,0.0
4827,0.0
2,9, 1, 9, 0,12, 0.00,60.00,Friday
4973,-1.8591397202870535
4826,0.0
4827,0.0
2,9, 1, 9, 0,13, 0.00,60.00,Friday
4973,-1.857565093910266
4826,0.0
4827,0.0
2,9, 1, 9, 0,14, 0.00,60.00,Friday
4973,-1.8508651227245634
4826,0.0
4827,0.0
2,9, 1, 9, 0,15, 0.00,60.00,Friday
4973,-1.8480061780563378
4826,0.0
4827,0.0
2,9, 1, 9, 0,16, 0.00,60.00,Friday
4973,-1.8448943477337
4826,0.0
4827,0.0
2,9, 1, 9, 0,17, 0.00,60.00,Friday
4973,-1.848223839327214
4826,0.0
4827,0.0
2,9, 1, 9, 0,18, 0.00,60.00,Friday
4973,-1.8575368915848803
4826,0.0
4827,0.0
2,9, 1, 9, 0,19, 0.00,60.00,Friday
4973,-1.8642870543771444
4826,0.0
4827,0.0
2,9, 1, 9, 0,20, 0.00,60.00,Friday
4973,-1.8548155873818298
4826,0.0
4827,0.0
2,9, 1, 9, 0,21, 0.00,60.00,Friday
4973,-1.8531532011904457
4826,0.0
4827,0.0
2,9, 1, 9, 0,22, 0.00,60.00,Friday
4973,-1.271144525322654
4826,2970477.7780635475
4827,1.0213057066721376e-7
2,9, 1, 9, 0,23, 0.00,60.00,Friday
4973,-1.0726651920255044
4826,2078341.2790302109
4827,1.6370904631912709e-8
2,9, 1, 9, 0,24, 0.00,60.00,Friday
4973,-1.058051239613973
4826,1932328.1532947948
4827,2.7830537874251605e-8
2,10, 1,10, 0, 1, 0.00,60.00,Saturday
4973,-1.0493371420792744
4826,2084156.6675720269
4827,6.205254976521246e-8
2,10, 1,10, 0, 2, 0.00,60.00,Saturday
4973,-1.0427091363504336
4826,2055913.1156570009
4827,6.446043698815629e-8
2,10, 1,10, 0, 3, 0.00,60.00,Saturday
4973,-1.0365337291395616
4826,2016874.7072107306
4827,6.435811883420684e-8
2,10, 1,10, 0, 4, 0.00,60.00,Saturday
4973,-1.0305521227306587
4826,1987149.1240063413
4827,1.1367546903784387e-7
2,10, 1,10, 0, 5, 0.00,60.00,Saturday
4973,-1.024563367273405
4826,1968419.6154675822
4827,2.31239027925767e-8
2,10, 1,10, 0, 6, 0.00,60.00,Saturday
4973,-1.0190295571274617
4826,1957056.380643561
4827,9.996483640861698e-8
2,10, 1,10, 0, 7, 0.00,60.00,Saturday
4973,-1.014432159532256
4826,1945339.0290067108
4827,7.960352377267555e-8
2,10, 1,10, 0, 8, 0.00,60.00,Saturday
4973,-1.0107801808799093
4826,1927526.6598129266
4827,6.574282451765612e-8
2,10, 1,10, 0, 9, 0.00,60.00,Saturday
4973,-1.0080719028163939
4826,1976614.3750676825
4827,4.256435204297304e-8
2,10, 1,10, 0,10, 0.00,60.00,Saturday
4973,-1.0060934417602988
4826,1952061.1631032252
4827,2.588649294921197e-8
2,10, 1,10, 0,11, 0.00,60.00,Saturday
4973,-1.0047147422198966
4826,1964200.0551372765
4827,1.1357315088389442e-8
2,10, 1,10, 0,12, 0.00,60.00,Saturday
4973,-1.0042692045457389
4826,1907174.718115634
4827,1.596163201611489e-8
2,10, 1,10, 0,13, 0.00,60.00,Saturday
4973,-1.002431943737689
4826,1834603.4039606418
4827,2.0156676328042523e-8
2,10, 1,10, 0,14, 0.00,60.00,Saturday
4973,-0.9993668134522238
4826,1753475.8725692689
4827,2.880256033677142e-8
2,10, 1,10, 0,15, 0.00,60.00,Saturday
4973,-0.9905396529459296
4826,1595703.6424484696
4827,4.1387693272554318e-8
2,10, 1,10, 0,16, 0.00,60.00,Saturday
4973,-0.974408507262115
4826,1499575.3122698884
4827,5.356355359253939e-8
2,10, 1,10, 0,17, 0.00,60.00,Saturday
4973,-0.9580602487029778
4826,1524798.7278396828
4827,6.548361852765083e-9
2,10, 1,10, 0,18, 0.00,60.00,Saturday
4973,-0.9489940568612569
4826,1543002.1353608408
4827,2.8751401259796695e-8
2,10, 1,10, 0,19, 0.00,60.00,Saturday
4973,-0.9453259827650307
4826,1573266.0612178059
4827,3.9955239117261956e-8
2,10, 1,10, 0,20, 0.00,60.00,Saturday
4973,-0.9432069530462186
4826,1482470.3660436667
4827,1.6294166016450619e-8
2,10, 1,10, 0,21, 0.00,60.00,Saturday
4973,-0.9413986456315913
4826,1456086.496084022
4827,5.724700713471975e-8
2,10, 1,10, 0,22, 0.00,60.00,Saturday
4973,-0.9360814155062005
4826,1439783.3863989467
4827,4.169464773440268e-8
2,10, 1,10, 0,23, 0.00,60.00,Saturday
4973,-0.9287477738028063
4826,1435911.0801665085
4827,2.752358341240324e-8
2,10, 1,10, 0,24, 0.00,60.00,Saturday
4973,-0.9219285093063591
4826,1410811.4666249979
4827,3.785771696129814e-8
2,11, 1,11, 0, 1, 0.00,60.00,Sunday
4973,-0.9220103300352105
4826,1607839.7484247997
4827,4.9530513024365067e-8
2,11, 1,11, 0, 2, 0.00,60.00,Sunday
4973,-0.925907867125133
4826,1669833.9925452644
4827,5.1466031436575579e-8
2,11, 1,11, 0, 3, 0.00,60.00,Sunday
4973,-0.9322397314817912
4826,1701453.9447772154
4827,3.049080987693742e-8
2,11, 1,11, 0, 4, 0.00,60.00,Sunday
4973,-0.9354699501911382
4826,1711782.521484282
4827,5.54564394406043e-8
2,11, 1,11, 0, 5, 0.00,60.00,Sunday
4973,-0.9364343638749202
4826,1724435.664684697
4827,8.91191120899748e-8
2,11, 1,11, 0, 6, 0.00,60.00,Sunday
4973,-0.9381578628839861
4826,1741825.7507240843
4827,5.9037574828835207e-8
2,11, 1,11, 0, 7, 0.00,60.00,Sunday
4973,-0.9407551158025459
4826,1756477.5241702777
4827,6.54324594506761e-8
2,11, 1,11, 0, 8, 0.00,60.00,Sunday
4973,-0.9420701729954853
4826,1739704.9566413968
4827,4.741423254017718e-8
2,11, 1,11, 0, 9, 0.00,60.00,Sunday
4973,-0.9409570550189862
4826,1720063.3483134935
4827,4.2871306504821408e-8
2,11, 1,11, 0,10, 0.00,60.00,Sunday
4973,-0.9360956557371377
4826,1643891.8791338527
4827,5.837250682816375e-8
2,11, 1,11, 0,11, 0.00,60.00,Sunday
4973,-0.9295813446156672
4826,1644769.7264954113
4827,1.545004124636762e-8
2,11, 1,11, 0,12, 0.00,60.00,Sunday
4973,-0.9242463422814471
4826,1606079.5498713833
4827,8.221263669838663e-8
2,11, 1,11, 0,13, 0.00,60.00,Sunday
4973,-0.9203917584690818
4826,1574480.1407908372
4827,3.5862512959283779e-8
2,11, 1,11, 0,14, 0.00,60.00,Sunday
4973,-0.9170825954590725
4826,1553449.9342441413
4827,8.425899977737572e-8
2,11, 1,11, 0,15, 0.00,60.00,Sunday
4973,-0.9138858764439624
4826,1463687.8939096232
4827,3.893205757776741e-8
2,11, 1,11, 0,16, 0.00,60.00,Sunday
4973,-0.9101399180945007
4826,1433186.4028181262
4827,2.8495605874923059e-8
2,11, 1,11, 0,17, 0.00,60.00,Sunday
4973,-0.9082627073522155
4826,1472454.8035547524
4827,2.291926648467779e-8
2,11, 1,11, 0,18, 0.00,60.00,Sunday
4973,-0.9076391468572024
4826,1461499.2251469996
4827,4.1234216041630137e-8
2,11, 1,11, 0,19, 0.00,60.00,Sunday
4973,-0.905185083925023
4826,1438119.636377936
4827,2.3635493562323974e-8
2,11, 1,11, 0,20, 0.00,60.00,Sunday
4973,-0.9025412595885289
4826,1297223.3792885696
4827,4.028777311759768e-8
2,11, 1,11, 0,21, 0.00,60.00,Sunday
4973,-0.8998751339526837
4826,1240465.1780230334
4827,2.987690095324069e-8
2,11, 1,11, 0,22, 0.00,60.00,Sunday
4973,-0.8971085258234679
4826,1222788.9432364256
4827,3.0388491722987968e-8
2,11, 1,11, 0,23, 0.00,60.00,Sunday
4973,-0.896155028356737
4826,1210510.159287884
4827,8.952838470577263e-9
2,11, 1,11, 0,24, 0.00,60.00,Sunday
4973,-0.8954928123662463
4826,1149187.10196475
4827,4.537810127658304e-8
2,12, 1,12, 0, 1, 0.00,60.00,Monday
4973,-0.896563496403378
4826,1291852.8390287646
4827,3.438052382469842e-8
2,12, 1,12, 0, 2, 0.00,60.00,Monday
4973,-0.8978102683649507
4826,1303351.8426936304
4827,5.3307758207665759e-8
2,12, 1,12, 0, 3, 0.00,60.00,Monday
4973,-0.8996271966622566
4826,1334377.1715159089
4827,4.768025974044576e-8
2,12, 1,12, 0, 4, 0.00,60.00,Monday
4973,-0.9009948955743518
4826,1362709.4475378686
4827,2.4505197870894336e-8
2,12, 1,12, 0, 5, 0.00,60.00,Monday
4973,-0.9008991261714244
4826,1388919.8642533075
4827,2.880256033677142e-8
2,12, 1,12, 0, 6, 0.00,60.00,Monday
4973,-0.899275360876853
4826,1413201.8775440602
4827,8.635652193333954e-8
2,12, 1,12, 0, 7, 0.00,60.00,Monday
4973,-0.8965754657569335
4826,1429745.5496552524
4827,4.184812496532686e-8
2,12, 1,12, 0, 8, 0.00,60.00,Monday
4973,-1.3531985333877108
4826,0.0
4827,0.0
2,12, 1,12, 0, 9, 0.00,60.00,Monday
4973,-1.6038328560135673
4826,0.0
4827,0.0
2,12, 1,12, 0,10, 0.00,60.00,Monday
4973,-1.6089291608899088
4826,0.0
4827,0.0
2,12, 1,12, 0,11, 0.00,60.00,Monday
4973,-1.612237545559194
4826,0.0
4827,0.0
2,12, 1,12, 0,12, 0.00,60.00,Monday
4973,-1.619964245592092
4826,0.0
4827,0.0
2,12, 1,12, 0,13, 0.00,60.00,Monday
4973,-1.6246125283058582
4826,0.0
4827,0.0
2,12, 1,12, 0,14, 0.00,60.00,Monday
4973,-1.6321600625294926
4826,0.0
4827,0.0
2,12, 1,12, 0,15, 0.00,60.00,Monday
4973,-1.632606319693001
4826,0.0
4827,0.0
2,12, 1,12, 0,16, 0.00,60.00,Monday
4973,-1.6260975046325439
4826,0.0
4827,0.0
2,12, 1,12, 0,17, 0.00,60.00,Monday
4973,-1.6168626527991415
4826,0.0
4827,0.0
2,12, 1,12, 0,18, 0.00,60.00,Monday
4973,-1.6087410882499969
4826,0.0
4827,0.0
2,12, 1,12, 0,19, 0.00,60.00,Monday
4973,-1.6082812571727492
4826,0.0
4827,0.0
2,12, 1,12, 0,20, 0.00,60.00,Monday
4973,-1.6029599646363853
4826,0.0
4827,0.0
2,12, 1,12, 0,21, 0.00,60.00,Monday
4973,-1.6067032322906463
4826,0.0
4827,0.0
2,12, 1,12, 0,22, 0.00,60.00,Monday
4973,-1.1328504142975356
4826,2255666.4250110795
4827,2.7755504561355339e-8
2,12, 1,12, 0,23, 0.00,60.00,Monday
4973,-0.971960882594406
4826,1543595.0780875013
4827,2.5784174795262517e-8
2,12, 1,12, 0,24, 0.00,60.00,Monday
4973,-0.9605118309771947
4826,1427472.623625754
4827,1.7035972632584163e-8
2,13, 1,13, 0, 1, 0.00,60.00,Tuesday
4973,-0.9534853539975613
4826,1601660.066735775
4827,4.948067604939297
2,13, 1,13, 0, 2, 0.00,60.00,Tuesday
4973,-0.9475891738602945
4826,1590421.9342198733
4827,1.5910472939140165e-8
2,13, 1,13, 0, 3, 0.00,60.00,Tuesday
4973,-0.9423741337480704
4826,1581653.599848402
4827,5.218225851422176e-8
2,13, 1,13, 0, 4, 0.00,60.00,Tuesday
4973,-0.9377542827761798
4826,1573833.6975222966
4827,9.055156624526717e-9
2,13, 1,13, 0, 5, 0.00,60.00,Tuesday
4973,-0.9334069432438774
4826,1571234.4911856293
4827,2.5835333872237244e-8
2,13, 1,13, 0, 6, 0.00,60.00,Tuesday
4973,-0.9292222664336938
4826,1573027.731211266
4827,6.686491360596847e-8
2,13, 1,13, 0, 7, 0.00,60.00,Tuesday
4973,-0.9261943576772518
4826,1572502.114895993
4827,4.3945647121290679e-8