Program Version,EnergyPlus, Version 8.7.0-78a111df4a, YMD=2019.08.06 22:49
1,5,Environment Title[],Latitude[deg],Longitude[deg],Time Zone[],Elevation[m]
2,6,Day of Simulation[],Month[],Day of Month[],DST Indicator[1=yes 0=no],Hour[],StartMinute[],EndMinute[],DayType
3,3,Cumulative Day of Simulation[],Month[],Day of Month[],DST Indicator[1=yes 0=no],DayType  ! When Daily Report Variables Requested
4,2,Cumulative Days of Simulation[],Month[]  ! When Monthly Report Variables Requested
5,1,Cumulative Days of Simulation[] ! When Run Period Report Variables Requested
5408,1,3F-B-BED2,Zone Air Temperature [C] !Hourly
7437,1,3F-B-BED2 IDEAL LOADS AIR SYSTEM,Zone Ideal Loads Zone Total Heating Energy [J] !Hourly
7438,1,3F-B-BED2 IDEAL LOADS AIR SYSTEM,Zone Ideal Loads Zone Total Cooling Energy [J] !Hourly
7592,1,3F-B-BED2 BEDROOM-B,Zone Thermal Comfort Fanger Model PMV [] !Hourly
End of Data Dictionary
1,ANNUAL,  29.58, 106.47,   8.00, 259.10
2,1, 1, 1, 0, 1, 0.00,60.00,Sunday
7592,-0.9922370486831335
5408,17.999999999999998
7437,578120.7886614257
7438,0.0
2,1, 1, 1, 0, 2, 0.00,60.00,Sunday
7592,-0.9800047126859764
5408,18.000000000000026
7437,605298.6880790045
7438,0.0
2,1, 1, 1, 0, 3, 0.00,60.00,Sunday
7592,-0.9732012210024722
5408,18.000000000000015
7437,613186.3254679563
7438,0.0
2,1, 1, 1, 0, 4, 0.00,60.00,Sunday
7592,-0.9702930037136932
5408,17.99999999999999
7437,635118.9133683243
7438,0.0
2,1, 1, 1, 0, 5, 0.00,60.00,Sunday
7592,-0.9700967445159505
5408,18.000000000000026
7437,679288.4033613599
7438,0.0
2,1, 1, 1, 0, 6, 0.00,60.00,Sunday
7592,-0.9711929392967309
5408,17.99999999999999
7437,728032.1421740663
7438,0.0
2,1, 1, 1, 0, 7, 0.00,60.00,Sunday
7592,-0.9734672321347703
5408,17.999999999999984
7437,772616.5755596181
7438,0.0
2,1, 1, 1, 0, 8, 0.00,60.00,Sunday
7592,-0.97551042102819
5408,18.00000000000001
7437,804555.3862845614
7438,0.0
2,1, 1, 1, 0, 9, 0.00,60.00,Sunday
7592,-1.2106885569638866
5408,15.974858727322739
7437,0.0
7438,0.0
2,1, 1, 1, 0,10, 0.00,60.00,Sunday
7592,-1.4081288191132327
5408,15.366146550273756
7437,0.0
7438,0.0
2,1, 1, 1, 0,11, 0.00,60.00,Sunday
7592,-1.443443223519213
5408,15.384636954282117
7437,0.0
7438,0.0
2,1, 1, 1, 0,12, 0.00,60.00,Sunday
7592,-1.4517769166577044
5408,15.429328609156656
7437,0.0
7438,0.0
2,1, 1, 1, 0,13, 0.00,60.00,Sunday
7592,-1.3078279469543229
5408,16.82931187059909
7437,720873.8145576173
7438,0.0
2,1, 1, 1, 0,14, 0.00,60.00,Sunday
7592,-1.0293336062714842
5408,18.00000000490945
7437,625993.4686225103
7438,0.0
2,1, 1, 1, 0,15, 0.00,60.00,Sunday
7592,-1.2005914431500247
5408,16.24887512362542
7437,0.0
7438,0.0
2,1, 1, 1, 0,16, 0.00,60.00,Sunday
7592,-1.332604033476928
5408,15.8947212311493
7437,0.0
7438,0.0
2,1, 1, 1, 0,17, 0.00,60.00,Sunday
7592,-1.3243809124525828
5408,16.001362307477977
7437,0.0
7438,0.0
2,1, 1, 1, 0,18, 0.00,60.00,Sunday
7592,-1.3058402797831473
5408,16.088462968740037
7437,0.0
7438,0.0
2,1, 1, 1, 0,19, 0.00,60.00,Sunday
7592,-1.2875494722479025
5408,16.138767372955316
7437,0.0
7438,0.0
2,1, 1, 1, 0,20, 0.00,60.00,Sunday
7592,-1.2796081361229466
5408,16.11984773149974
7437,0.0
7438,0.0
2,1, 1, 1, 0,21, 0.00,60.00,Sunday
7592,-1.2967988970359217
5408,16.008128980869235
7437,0.0
7438,0.0
2,1, 1, 1, 0,22, 0.00,60.00,Sunday
7592,-1.3318556860277989
5408,15.863961340476572
7437,0.0
7438,0.0
2,1, 1, 1, 0,23, 0.00,60.00,Sunday
7592,-1.0591589214103106
5408,18.104140392928835
7437,804531.6977883815
7438,0.0
2,1, 1, 1, 0,24, 0.00,60.00,Sunday
7592,-0.9980037965113935
5408,18.000000000000015
7437,474248.6865801852
7438,0.0
2,2, 1, 2, 0, 1, 0.00,60.00,Monday
7592,-0.9928734219411494
5408,18.0
7437,570527.2172622756
7438,0.0
2,2, 1, 2, 0, 2, 0.00,60.00,Monday
7592,-0.9882865926678365
5408,18.000000000000005
7437,607875.9225447623
7438,0.0
2,2, 1, 2, 0, 3, 0.00,60.00,Monday
7592,-0.9862287898447987
5408,18.000000000000015
7437,628961.413715382
7438,0.0
2,2, 1, 2, 0, 4, 0.00,60.00,Monday
7592,-0.9846329906384659
5408,18.000000000000005
7437,644644.19902647
7438,0.0
2,2, 1, 2, 0, 5, 0.00,60.00,Monday
7592,-0.9834806108774045
5408,18.000000000000005
7437,661280.9646115057
7438,0.0
2,2, 1, 2, 0, 6, 0.00,60.00,Monday
7592,-0.9826490994574794
5408,18.000000000000005
7437,680840.6696683487
7438,0.0
2,2, 1, 2, 0, 7, 0.00,60.00,Monday
7592,-0.9818536433951411
5408,18.00000000000003
7437,695646.7944021172
7438,0.0
2,2, 1, 2, 0, 8, 0.00,60.00,Monday
7592,-0.9817213955406176
5408,18.0
7437,702730.1986437442
7438,0.0
2,2, 1, 2, 0, 9, 0.00,60.00,Monday
7592,-1.2104059169771493
5408,16.035781307224178
7437,0.0
7438,0.0
2,2, 1, 2, 0,10, 0.00,60.00,Monday
7592,-1.3868315869303583
5408,15.568399853690769
7437,0.0
7438,0.0
2,2, 1, 2, 0,11, 0.00,60.00,Monday
7592,-1.4048107061123767
5408,15.600391525673532
7437,0.0
7438,0.0
2,2, 1, 2, 0,12, 0.00,60.00,Monday
7592,-1.4076214638746126
5408,15.644893952216455
7437,0.0
7438,0.0
2,2, 1, 2, 0,13, 0.00,60.00,Monday
7592,-1.2748527291883199
5408,16.93623482024658
7437,660732.9557204361
7438,0.0
2,2, 1, 2, 0,14, 0.00,60.00,Monday
7592,-1.0248349838761413
5408,18.00000001048056
7437,506721.38562468139
7438,0.0
2,2, 1, 2, 0,15, 0.00,60.00,Monday
7592,-1.1856799030195585
5408,16.38790883451416
7437,0.0
7438,0.0
2,2, 1, 2, 0,16, 0.00,60.00,Monday
7592,-1.3187557597925846
5408,15.961262448169452
7437,0.0
7438,0.0
2,2, 1, 2, 0,17, 0.00,60.00,Monday
7592,-1.3320494110530703
5408,15.947636624684599
7437,0.0
7438,0.0
2,2, 1, 2, 0,18, 0.00,60.00,Monday
7592,-1.3495806572356937
5408,15.870160221572866
7437,0.0
7438,0.0
2,2, 1, 2, 0,19, 0.00,60.00,Monday
7592,-1.372365459907133
5408,15.769806819578136
7437,0.0
7438,0.0
2,2, 1, 2, 0,20, 0.00,60.00,Monday
7592,-1.391688218661998
5408,15.686544243540857
7437,0.0
7438,0.0
2,2, 1, 2, 0,21, 0.00,60.00,Monday
7592,-1.4083249630780193
5408,15.623147349357433
7437,0.0
7438,0.0
2,2, 1, 2, 0,22, 0.00,60.00,Monday
7592,-1.416856888317725
5408,15.593984563190688
7437,0.0
7438,0.0
2,2, 1, 2, 0,23, 0.00,60.00,Monday
7592,-1.0882835021313369
5408,18.10146700269149
7437,907288.0410801926
7438,0.0
2,2, 1, 2, 0,24, 0.00,60.00,Monday
7592,-1.0010951302049305
5408,18.000000000000005
7437,577527.2423796377
7438,0.0
2,3, 1, 3, 0, 1, 0.00,60.00,Tuesday
7592,-0.9881346238811286
5408,18.000000000000026
7437,673228.2103529127
7438,0.0
2,3, 1, 3, 0, 2, 0.00,60.00,Tuesday
7592,-0.98105938732147
5408,18.000000000000005
7437,727698.0076583488
7438,0.0
2,3, 1, 3, 0, 3, 0.00,60.00,Tuesday
7592,-0.9806453133236675
5408,18.000000000000008
7437,782849.475333957
7438,0.0
2,3, 1, 3, 0, 4, 0.00,60.00,Tuesday
7592,-0.9815122788907701
5408,18.0
7437,819228.9508740093
7438,0.0
2,3, 1, 3, 0, 5, 0.00,60.00,Tuesday
7592,-0.9824523307713583
5408,18.000000000000008
7437,835024.0705731994
7438,0.0
2,3, 1, 3, 0, 6, 0.00,60.00,Tuesday
7592,-0.9836630815471051
5408,17.999999999999998
7437,840307.7705060943
7438,0.0
2,3, 1, 3, 0, 7, 0.00,60.00,Tuesday
7592,-0.984312405331691
5408,18.00000000000001
7437,827119.5751443859
7438,0.0
2,3, 1, 3, 0, 8, 0.00,60.00,Tuesday
7592,-0.9845633886071888
5408,17.99999999999999
7437,808728.1792644255
7438,0.0
2,3, 1, 3, 0, 9, 0.00,60.00,Tuesday
7592,-1.2163166888951787
5408,16.003629747084834
7437,0.0
7438,0.0
2,3, 1, 3, 0,10, 0.00,60.00,Tuesday
7592,-1.4169556354148683
5408,15.368118191139006
7437,0.0
7438,0.0
2,3, 1, 3, 0,11, 0.00,60.00,Tuesday
7592,-1.4613274285062135
5408,15.342963368123309
7437,0.0
7438,0.0
2,3, 1, 3, 0,12, 0.00,60.00,Tuesday
7592,-1.4835034843043518
5408,15.321261700076216
7437,0.0
7438,0.0
2,3, 1, 3, 0,13, 0.00,60.00,Tuesday
7592,-1.346593220578141
5408,16.74396020257988
7437,832898.3807720979
7438,0.0
2,3, 1, 3, 0,14, 0.00,60.00,Tuesday
7592,-1.0497263955706962
5408,18.000000000024487
7437,867786.6231264427
7438,0.0
2,3, 1, 3, 0,15, 0.00,60.00,Tuesday
7592,-1.2491482958290872
5408,15.9770902521535
7437,0.0
7438,0.0
2,3, 1, 3, 0,16, 0.00,60.00,Tuesday
7592,-1.4480328649708645
5408,15.33638331579913
7437,0.0
7438,0.0
2,3, 1, 3, 0,17, 0.00,60.00,Tuesday
7592,-1.4813874685897107
5408,15.305834134298303
7437,0.0
7438,0.0
2,3, 1, 3, 0,18, 0.00,60.00,Tuesday
7592,-1.498453472809228
5408,15.269997122526162
7437,0.0
7438,0.0
2,3, 1, 3, 0,19, 0.00,60.00,Tuesday
7592,-1.505183007606213
5408,15.25580537995952
7437,0.0
7438,0.0
2,3, 1, 3, 0,20, 0.00,60.00,Tuesday
7592,-1.5056772462805708
5408,15.248742813498162
7437,0.0
7438,0.0
2,3, 1, 3, 0,21, 0.00,60.00,Tuesday
7592,-1.505454301353024
5408,15.238745390143324
7437,0.0
7438,0.0
2,3, 1, 3, 0,22, 0.00,60.00,Tuesday
7592,-1.5044121861113187
5408,15.229824592799906
7437,0.0
7438,0.0
2,3, 1, 3, 0,23, 0.00,60.00,Tuesday
7592,-1.1252405071841412
5408,18.097428920156678
7437,1256495.7966024439
7438,0.0
2,3, 1, 3, 0,24, 0.00,60.00,Tuesday
7592,-1.0136076194319042
5408,18.00000000000004
7437,807152.9455163422
7438,0.0
2,4, 1, 4, 0, 1, 0.00,60.00,Wednesday
7592,-0.9949962393425752
5408,17.999999999999998
7437,836725.606951808
7438,0.0
2,4, 1, 4, 0, 2, 0.00,60.00,Wednesday
7592,-0.9859565278312318
5408,18.0
7437,830537.4152876153
7438,0.0
2,4, 1, 4, 0, 3, 0.00,60.00,Wednesday
7592,-0.982661603016486
5408,18.000000000000008
7437,828247.5389323217
7438,0.0
2,4, 1, 4, 0, 4, 0.00,60.00,Wednesday
7592,-0.9808035452391883
5408,17.999999999999984
7437,828022.0429815672
7438,0.0
2,4, 1, 4, 0, 5, 0.00,60.00,Wednesday
7592,-0.9790560244072634
5408,18.000000000000019
7437,823810.9794446768
7438,0.0
2,4, 1, 4, 0, 6, 0.00,60.00,Wednesday
7592,-0.9776024714022494
5408,17.999999999999994
7437,825706.8101233326
7438,0.0
2,4, 1, 4, 0, 7, 0.00,60.00,Wednesday
7592,-0.9763552836338816
5408,18.000000000000058
7437,828274.1077645088
7438,0.0
2,4, 1, 4, 0, 8, 0.00,60.00,Wednesday
7592,-0.9756103402947338
5408,18.000000000000026
7437,824181.5589109126
7438,0.0
2,4, 1, 4, 0, 9, 0.00,60.00,Wednesday
7592,-1.2129049113089483
5408,15.929788399856549
7437,0.0
7438,0.0
2,4, 1, 4, 0,10, 0.00,60.00,Wednesday
7592,-1.424886634784065
5408,15.284745188766124
7437,0.0
7438,0.0
2,4, 1, 4, 0,11, 0.00,60.00,Wednesday
7592,-1.4649809452455536
5408,15.261956519073138
7437,0.0
7438,0.0
2,4, 1, 4, 0,12, 0.00,60.00,Wednesday
7592,-1.4877199487337887
5408,15.250714495615915
7437,0.0
7438,0.0
2,4, 1, 4, 0,13, 0.00,60.00,Wednesday
7592,-1.346930180885227
5408,16.722808983289185
7437,835242.4039697463
7438,0.0
2,4, 1, 4, 0,14, 0.00,60.00,Wednesday
7592,-1.0475086778996246
5408,18.00000000084483
7437,860370.0725114952
7438,0.0
2,4, 1, 4, 0,15, 0.00,60.00,Wednesday
7592,-1.2461494518089394
5408,16.022762938999369
7437,0.0
7438,0.0
2,4, 1, 4, 0,16, 0.00,60.00,Wednesday
7592,-1.4219252368033582
5408,15.486932348733788
7437,0.0
7438,0.0
2,4, 1, 4, 0,17, 0.00,60.00,Wednesday
7592,-1.4458153979571052
5408,15.470173867095907
7437,0.0
7438,0.0
2,4, 1, 4, 0,18, 0.00,60.00,Wednesday
7592,-1.4613634984539044
5408,15.419535913721168
7437,0.0
7438,0.0
2,4, 1, 4, 0,19, 0.00,60.00,Wednesday
7592,-1.4738791552783182
5408,15.360631178163855
7437,0.0
7438,0.0
2,4, 1, 4, 0,20, 0.00,60.00,Wednesday
7592,-1.4830311855659293
5408,15.305691507596725
7437,0.0
7438,0.0
2,4, 1, 4, 0,21, 0.00,60.00,Wednesday
7592,-1.4925080721860742
5408,15.256655471585305
7437,0.0
7438,0.0
2,4, 1, 4, 0,22, 0.00,60.00,Wednesday
7592,-1.5004735467124304
5408,15.222277421126805
7437,0.0
7438,0.0
2,4, 1, 4, 0,23, 0.00,60.00,Wednesday
7592,-1.1237537543560675
5408,18.099367535669143
7437,1255747.7603996138
7438,0.0
2,4, 1, 4, 0,24, 0.00,60.00,Wednesday
7592,-1.0148090540558055
5408,18.000000000000026
7437,808252.3304327927
7438,0.0
2,5, 1, 5, 0, 1, 0.00,60.00,Thursday
7592,-0.9994467936522554
5408,18.000000000000008
7437,833657.2872356686
7438,0.0
2,5, 1, 5, 0, 2, 0.00,60.00,Thursday
7592,-0.9927059303602968
5408,18.0
7437,816532.0051646705
7438,0.0
2,5, 1, 5, 0, 3, 0.00,60.00,Thursday
7592,-0.991628164770335
5408,17.999999999999998
7437,811288.1065115541
7438,0.0
2,5, 1, 5, 0, 4, 0.00,60.00,Thursday
7592,-0.9930037797919441
5408,18.00000000000002
7437,818353.017794735
7438,0.0
2,5, 1, 5, 0, 5, 0.00,60.00,Thursday
7592,-0.995145538130059
5408,18.000000000000026
7437,829692.2421461913
7438,0.0
2,5, 1, 5, 0, 6, 0.00,60.00,Thursday
7592,-0.9968801265358221
5408,17.99999999999999
7437,843975.4464716422
7438,0.0
2,5, 1, 5, 0, 7, 0.00,60.00,Thursday
7592,-0.9982927617858688
5408,18.000000000000026
7437,859233.4639949892
7438,0.0
2,5, 1, 5, 0, 8, 0.00,60.00,Thursday
7592,-0.9999926165127809
5408,18.000000000000005
7437,868964.2389969745
7438,0.0
2,5, 1, 5, 0, 9, 0.00,60.00,Thursday
7592,-1.242184057198657
5408,15.900730544185079
7437,0.0
7438,0.0
2,5, 1, 5, 0,10, 0.00,60.00,Thursday
7592,-1.459321171541574
5408,15.24811270377567
7437,0.0
7438,0.0
2,5, 1, 5, 0,11, 0.00,60.00,Thursday
7592,-1.4982550199632099
5408,15.229757647891275
7437,0.0
7438,0.0
2,5, 1, 5, 0,12, 0.00,60.00,Thursday
7592,-1.5169748407798967
5408,15.218209966452776
7437,0.0
7438,0.0
2,5, 1, 5, 0,13, 0.00,60.00,Thursday
7592,-1.3712338266113136
5408,16.702367552486164
7437,870997.6452139093
7438,0.0
2,5, 1, 5, 0,14, 0.00,60.00,Thursday
7592,-1.059871458042301
5408,18.000000000056553
7437,918147.3314312379
7438,0.0
2,5, 1, 5, 0,15, 0.00,60.00,Thursday
7592,-1.2623826447203795
5408,15.945739198726037
7437,0.0
7438,0.0
2,5, 1, 5, 0,16, 0.00,60.00,Thursday
7592,-1.4520785603707525
5408,15.355624539716624
7437,0.0
7438,0.0
2,5, 1, 5, 0,17, 0.00,60.00,Thursday
7592,-1.4844159436419362
5408,15.335688921283074
7437,0.0
7438,0.0
2,5, 1, 5, 0,18, 0.00,60.00,Thursday
7592,-1.497514452439071
5408,15.32787621835857
7437,0.0
7438,0.0
2,5, 1, 5, 0,19, 0.00,60.00,Thursday
7592,-1.5044694465711087
5408,15.322610788983843
7437,0.0
7438,0.0
2,5, 1, 5, 0,20, 0.00,60.00,Thursday
7592,-1.5074810332041997
5408,15.3147154024347
7437,0.0
7438,0.0
2,5, 1, 5, 0,21, 0.00,60.00,Thursday
7592,-1.513246278913373
5408,15.28545123912614
7437,0.0
7438,0.0
2,5, 1, 5, 0,22, 0.00,60.00,Thursday
7592,-1.5226611912608946
5408,15.241276427287993
7437,0.0
7438,0.0
2,5, 1, 5, 0,23, 0.00,60.00,Thursday
7592,-1.14765363017664
5408,18.10144522952791
7437,1287554.606729783
7438,0.0
2,5, 1, 5, 0,24, 0.00,60.00,Thursday
7592,-1.0353326560389185
5408,18.000000000000015
7437,856084.2571822299
7438,0.0
2,6, 1, 6, 0, 1, 0.00,60.00,Friday
7592,-1.0132251215037778
5408,18.000000000000005
7437,897472.6627387464
7438,0.0
2,6, 1, 6, 0, 2, 0.00,60.00,Friday
7592,-1.000894569572015
5408,17.999999999999998
7437,895807.6181422651
7438,0.0
2,6, 1, 6, 0, 3, 0.00,60.00,Friday
7592,-0.9940235057781074
5408,17.999999999999998
7437,888368.1874363388
7438,0.0
2,6, 1, 6, 0, 4, 0.00,60.00,Friday
7592,-0.9896980922628199
5408,18.000000000000015
7437,886102.1449080061
7438,0.0
2,6, 1, 6, 0, 5, 0.00,60.00,Friday
7592,-0.9862524461061154
5408,18.000000000000008
7437,882747.7903687775
7438,0.0
2,6, 1, 6, 0, 6, 0.00,60.00,Friday
7592,-0.9833983119463431
5408,17.999999999999998
7437,875059.2128121316
7438,0.0
2,6, 1, 6, 0, 7, 0.00,60.00,Friday
7592,-0.9816745464879926
5408,17.999999999999987
7437,870440.6475194724
7438,0.0
2,6, 1, 6, 0, 8, 0.00,60.00,Friday
7592,-0.9819017423897374
5408,18.000000000000033
7437,868306.0670608284
7438,0.0
2,6, 1, 6, 0, 9, 0.00,60.00,Friday
7592,-1.2214678241966329
5408,15.913547340190667
7437,0.0
7438,0.0
2,6, 1, 6, 0,10, 0.00,60.00,Friday
7592,-1.4243783045020902
5408,15.334156366357755
7437,0.0
7438,0.0
2,6, 1, 6, 0,11, 0.00,60.00,Friday
7592,-1.4509760234340104
5408,15.390049402830498
7437,0.0
7438,0.0
2,6, 1, 6, 0,12, 0.00,60.00,Friday
7592,-1.457057150297368
5408,15.462240532235719
7437,0.0
7438,0.0
2,6, 1, 6, 0,13, 0.00,60.00,Friday
7592,-1.313128953747483
5408,16.875944470354488
7437,713433.4826000334
7438,0.0
2,6, 1, 6, 0,14, 0.00,60.00,Friday
7592,-1.0440789427350088
5408,18.00000002570975
7437,529240.9870236004
7438,0.0
2,6, 1, 6, 0,15, 0.00,60.00,Friday
7592,-1.2012170206511249
5408,16.43288793955582
7437,0.0
7438,0.0
2,6, 1, 6, 0,16, 0.00,60.00,Friday
7592,-1.3323264927144785
5408,16.047107299916019
7437,0.0
7438,0.0
2,6, 1, 6, 0,17, 0.00,60.00,Friday
7592,-1.3350857703436923
5408,16.070188810423955
7437,0.0
7438,0.0
2,6, 1, 6, 0,18, 0.00,60.00,Friday
7592,-1.3442717641591227
5408,16.007816823018648
7437,0.0
7438,0.0
2,6, 1, 6, 0,19, 0.00,60.00,Friday
7592,-1.358722031061461
5408,15.907099872906676
7437,0.0
7438,0.0
2,6, 1, 6, 0,20, 0.00,60.00,Friday
7592,-1.3710444412019954
5408,15.815083377197596
7437,0.0
7438,0.0
2,6, 1, 6, 0,21, 0.00,60.00,Friday
7592,-1.3855330263740189
5408,15.722113506306686
7437,0.0
7438,0.0
2,6, 1, 6, 0,22, 0.00,60.00,Friday
7592,-1.3990992446021602
5408,15.642078205367783
7437,0.0
7438,0.0
2,6, 1, 6, 0,23, 0.00,60.00,Friday
7592,-1.08165741045361
5408,18.112128597471967
7437,889201.2666583153
7438,0.0
2,6, 1, 6, 0,24, 0.00,60.00,Friday
7592,-0.9997568846780004
5408,17.999999999999994
7437,573532.5989945023
7438,0.0
2,7, 1, 7, 0, 1, 0.00,60.00,Saturday
7592,-0.9874608630325388
5408,18.00000000000001
7437,645190.9256665736
7438,0.0
2,7, 1, 7, 0, 2, 0.00,60.00,Saturday
7592,-0.9798372536573886
5408,18.00000000000001
7437,673598.4803267923
7438,0.0
2,7, 1, 7, 0, 3, 0.00,60.00,Saturday
7592,-0.9776618337080657
5408,17.999999999999984
7437,715564.7450321775
7438,0.0
2,7, 1, 7, 0, 4, 0.00,60.00,Saturday
7592,-0.9773578020154231
5408,18.000000000000008
7437,771160.8120316696
7438,0.0
2,7, 1, 7, 0, 5, 0.00,60.00,Saturday
7592,-0.9783222313068269
5408,18.000000000000005
7437,840142.5208794004
7438,0.0
2,7, 1, 7, 0, 6, 0.00,60.00,Saturday
7592,-0.9799011542645828
5408,18.000000000000019
7437,908336.4705489107
7438,0.0
2,7, 1, 7, 0, 7, 0.00,60.00,Saturday
7592,-0.9814669139790744
5408,17.99999999999997
7437,963980.5509028764
7438,0.0
2,7, 1, 7, 0, 8, 0.00,60.00,Saturday
7592,-0.9829205343138866
5408,18.00000000000003
7437,998869.8322650343
7438,0.0
2,7, 1, 7, 0, 9, 0.00,60.00,Saturday
7592,-1.2423068683016417
5408,15.770509184633476
7437,0.0
7438,0.0
2,7, 1, 7, 0,10, 0.00,60.00,Saturday
7592,-1.4610956425090385
5408,15.116684433171619
7437,0.0
7438,0.0
2,7, 1, 7, 0,11, 0.00,60.00,Saturday
7592,-1.4999269968964225
5408,15.166957041134781
7437,0.0
7438,0.0
2,7, 1, 7, 0,12, 0.00,60.00,Saturday
7592,-1.5060686287231338
5408,15.263652662467806
7437,0.0
7438,0.0
2,7, 1, 7, 0,13, 0.00,60.00,Saturday
7592,-1.3470149933356757
5408,16.783914192359707
7437,753155.7114701857
7438,0.0
2,7, 1, 7, 0,14, 0.00,60.00,Saturday
7592,-1.0556265112585528
5408,18.000000005966557
7437,590179.7589456687
7438,0.0
2,7, 1, 7, 0,15, 0.00,60.00,Saturday
7592,-1.2040090300324258
5408,16.451863087569675
7437,0.0
7438,0.0
2,7, 1, 7, 0,16, 0.00,60.00,Saturday
7592,-1.3021090753940377
5408,16.243994376512327
7437,0.0
7438,0.0
2,7, 1, 7, 0,17, 0.00,60.00,Saturday
7592,-1.2816297641153436
5408,16.354380134569924
7437,0.0
7438,0.0
2,7, 1, 7, 0,18, 0.00,60.00,Saturday
7592,-1.2890556353201488
5408,16.307256712156908
7437,0.0
7438,0.0
2,7, 1, 7, 0,19, 0.00,60.00,Saturday
7592,-1.3027051530368386
5408,16.22997672947927
7437,0.0
7438,0.0
2,7, 1, 7, 0,20, 0.00,60.00,Saturday
7592,-1.3184023554542035
5408,16.142433114306994
7437,0.0
7438,0.0
2,7, 1, 7, 0,21, 0.00,60.00,Saturday
7592,-1.3345802143913635
5408,16.047886969340536
7437,0.0
7438,0.0
2,7, 1, 7, 0,22, 0.00,60.00,Saturday
7592,-1.349816605797882
5408,15.961218812331517
7437,0.0
7438,0.0
2,7, 1, 7, 0,23, 0.00,60.00,Saturday
7592,-1.0729253610104393
5408,18.117064417976818
7437,697416.2206134761
7438,0.0
2,7, 1, 7, 0,24, 0.00,60.00,Saturday
7592,-1.0114512356600416
5408,18.000000000000008
7437,363164.2349854049
7438,0.0
2,8, 1, 8, 0, 1, 0.00,60.00,Sunday
7592,-1.0021882967391889
5408,18.000000000000005
7437,454374.1997510579
7438,0.0
2,8, 1, 8, 0, 2, 0.00,60.00,Sunday
7592,-0.9924694558189086
5408,17.999999999999998
7437,482527.2101572085
7438,0.0
2,8, 1, 8, 0, 3, 0.00,60.00,Sunday
7592,-0.986911592659323
5408,18.0
7437,508356.54835992419
7438,0.0
2,8, 1, 8, 0, 4, 0.00,60.00,Sunday
7592,-0.9832502765368826
5408,18.00000000000001
7437,535197.2638605286
7438,0.0
2,8, 1, 8, 0, 5, 0.00,60.00,Sunday
7592,-0.9806701802786474
5408,17.999999999999998
7437,560937.6278237955
7438,0.0
2,8, 1, 8, 0, 6, 0.00,60.00,Sunday
7592,-0.9783014354791965
5408,17.999999999999984
7437,584398.290170218
7438,0.0
2,8, 1, 8, 0, 7, 0.00,60.00,Sunday
7592,-0.9771382834008523
5408,18.000000000000019
7437,600174.7271294687
7438,0.0
2,8, 1, 8, 0, 8, 0.00,60.00,Sunday
7592,-0.9768863128182429
5408,18.0
7437,609147.5182550761
7438,0.0
2,8, 1, 8, 0, 9, 0.00,60.00,Sunday
7592,-1.1940976879658412
5408,16.12252033028466
7437,0.0
7438,0.0
2,8, 1, 8, 0,10, 0.00,60.00,Sunday
7592,-1.365718646178511
5408,15.654008513038406
7437,0.0
7438,0.0
2,8, 1, 8, 0,11, 0.00,60.00,Sunday
7592,-1.382267201572154
5408,15.709474592234102
7437,0.0
7438,0.0
2,8, 1, 8, 0,12, 0.00,60.00,Sunday
7592,-1.3814384293919269
5408,15.782698685892598
7437,0.0
7438,0.0
2,8, 1, 8, 0,13, 0.00,60.00,Sunday
7592,-1.2493392682265153
5408,17.033285308442939
7437,559700.143565037
7438,0.0
2,8, 1, 8, 0,14, 0.00,60.00,Sunday
7592,-1.0257701529428427
5408,18.00000002377845
7437,321712.5509742401
7438,0.0
2,8, 1, 8, 0,15, 0.00,60.00,Sunday
7592,-1.1721045494320619
5408,16.559834397577693
7437,0.0
7438,0.0
2,8, 1, 8, 0,16, 0.00,60.00,Sunday
7592,-1.2896957337551889
5408,16.201677327922146
7437,0.0
7438,0.0
2,8, 1, 8, 0,17, 0.00,60.00,Sunday
7592,-1.2962974166015469
5408,16.22599768731859
7437,0.0
7438,0.0
2,8, 1, 8, 0,18, 0.00,60.00,Sunday
7592,-1.3035830555095863
5408,16.20198340878932
7437,0.0
7438,0.0
2,8, 1, 8, 0,19, 0.00,60.00,Sunday
7592,-1.3126650893838348
5408,16.140531779401358
7437,0.0
7438,0.0
2,8, 1, 8, 0,20, 0.00,60.00,Sunday
7592,-1.324359504695879
5408,16.071526195262796
7437,0.0
7438,0.0
2,8, 1, 8, 0,21, 0.00,60.00,Sunday
7592,-1.3346892555138797
5408,16.014126635499545
7437,0.0
7438,0.0
2,8, 1, 8, 0,22, 0.00,60.00,Sunday
7592,-1.3398954710674776
5408,15.979853679344372
7437,0.0
7438,0.0
2,8, 1, 8, 0,23, 0.00,60.00,Sunday
7592,-1.0598879036850238
5408,18.113251035082109
7437,644717.1459802295
7438,0.0
2,8, 1, 8, 0,24, 0.00,60.00,Sunday
7592,-0.9975569595320279
5408,18.0
7437,311147.3482338416
7438,0.0
2,9, 1, 9, 0, 1, 0.00,60.00,Monday
7592,-0.9877651787453243
5408,17.999999999999994
7437,415570.275593842
7438,0.0
2,9, 1, 9, 0, 2, 0.00,60.00,Monday
7592,-0.9794774398810576
5408,17.999999999999987
7437,462196.79286333188
7438,0.0
2,9, 1, 9, 0, 3, 0.00,60.00,Monday
7592,-0.9746000754372405
5408,17.99999999999999
7437,489313.7339304039
7438,0.0
2,9, 1, 9, 0, 4, 0.00,60.00,Monday
7592,-0.9716585359245595
5408,18.000000000000005
7437,498572.99438775968
7438,0.0
2,9, 1, 9, 0, 5, 0.00,60.00,Monday
7592,-0.9696950166028139
5408,18.000000000000005
7437,505258.2319316213
7438,0.0
2,9, 1, 9, 0, 6, 0.00,60.00,Monday
7592,-0.9683838629808297
5408,18.00000000000001
7437,514647.387622017
7438,0.0
2,9, 1, 9, 0, 7, 0.00,60.00,Monday
7592,-0.9680250770870282
5408,17.999999999999998
7437,523687.32764067259
7438,0.0
2,9, 1, 9, 0, 8, 0.00,60.00,Monday
7592,-0.9687861963591131
5408,18.0
7437,532236.3167400279
7438,0.0
2,9, 1, 9, 0, 9, 0.00,60.00,Monday
7592,-1.1774454303025073
5408,16.19780432212754
7437,0.0
7438,0.0
2,9, 1, 9, 0,10, 0.00,60.00,Monday
7592,-1.3449824315229407
5408,15.716997597014382
7437,0.0
7438,0.0
2,9, 1, 9, 0,11, 0.00,60.00,Monday
7592,-1.3716999043788015
5408,15.703582724618757
7437,0.0
7438,0.0
2,9, 1, 9, 0,12, 0.00,60.00,Monday
7592,-1.3837560063272843
5408,15.702495189978722
7437,0.0
7438,0.0
2,9, 1, 9, 0,13, 0.00,60.00,Monday
7592,-1.2624738306642065
5408,16.94479370399846
7437,647098.9235815576
7438,0.0
2,9, 1, 9, 0,14, 0.00,60.00,Monday
7592,-1.0178571956058714
5408,18.000000006963206
7437,520078.3025062419
7438,0.0
2,9, 1, 9, 0,15, 0.00,60.00,Monday
7592,-1.1919915989172268
5408,16.281152524260347
7437,0.0
7438,0.0
2,9, 1, 9, 0,16, 0.00,60.00,Monday
7592,-1.343851476718225
5408,15.80699763931076
7437,0.0
7438,0.0
2,9, 1, 9, 0,17, 0.00,60.00,Monday
7592,-1.367277998620179
5408,15.774742894058312
7437,0.0
7438,0.0
2,9, 1, 9, 0,18, 0.00,60.00,Monday
7592,-1.3812910966447512
5408,15.743377464157453
7437,0.0
7438,0.0
2,9, 1, 9, 0,19, 0.00,60.00,Monday
7592,-1.3878580290723477
5408,15.730014245176529
7437,0.0
7438,0.0
2,9, 1, 9, 0,20, 0.00,60.00,Monday
7592,-1.390687364647208
5408,15.717749288815599
7437,0.0
7438,0.0
2,9, 1, 9, 0,21, 0.00,60.00,Monday
7592,-1.3948475511354038
5408,15.70028676119503
7437,0.0
7438,0.0
2,9, 1, 9, 0,22, 0.00,60.00,Monday
7592,-1.3984118717416783
5408,15.687536149817582
7437,0.0
7438,0.0
2,9, 1, 9, 0,23, 0.00,60.00,Monday
7592,-1.083303374859543
5408,18.10794389632313
7437,862718.3126227728
7438,0.0
2,9, 1, 9, 0,24, 0.00,60.00,Monday
7592,-1.0059109012572889
5408,18.000000000000005
7437,455195.4297732139
7438,0.0
2,10, 1,10, 0, 1, 0.00,60.00,Tuesday
7592,-0.9954804337645458
5408,17.999999999999987
7437,498602.05064167678
7438,0.0
2,10, 1,10, 0, 2, 0.00,60.00,Tuesday
7592,-0.9885746615170027
5408,18.000000000000005
7437,495900.1308567751
7438,0.0
2,10, 1,10, 0, 3, 0.00,60.00,Tuesday
7592,-0.9854369341020237
5408,18.0
7437,492629.5450051018
7438,0.0
2,10, 1,10, 0, 4, 0.00,60.00,Tuesday
7592,-0.9837162997531429
5408,18.000000000000015
7437,494455.2203626854
7438,0.0
2,10, 1,10, 0, 5, 0.00,60.00,Tuesday
7592,-0.9818836760498099
5408,18.000000000000005
7437,497722.28285014306
7438,0.0
2,10, 1,10, 0, 6, 0.00,60.00,Tuesday
7592,-0.9802929035315677
5408,18.00000000000001
7437,507580.6560555899
7438,0.0
2,10, 1,10, 0, 7, 0.00,60.00,Tuesday
7592,-0.979047386344767
5408,18.000000000000015
7437,516812.52344335857
7438,0.0
2,10, 1,10, 0, 8, 0.00,60.00,Tuesday
7592,-0.9788396584078111
5408,18.000000000000005
7437,520298.50077884356
7438,0.0
2,10, 1,10, 0, 9, 0.00,60.00,Tuesday
7592,-1.1835282656310334
5408,16.21355218145266
7437,0.0
7438,0.0
2,10, 1,10, 0,10, 0.00,60.00,Tuesday
7592,-1.3494278956220585
5408,15.729600357203227
7437,0.0
7438,0.0
2,10, 1,10, 0,11, 0.00,60.00,Tuesday
7592,-1.3738414709405198
5408,15.734301028548485
7437,0.0
7438,0.0
2,10, 1,10, 0,12, 0.00,60.00,Tuesday
7592,-1.3814769111230543
5408,15.775709905314804
7437,0.0
7438,0.0
2,10, 1,10, 0,13, 0.00,60.00,Tuesday
7592,-1.2565845056692829
5408,17.017510111721668
7437,580704.6729072835
7438,0.0
2,10, 1,10, 0,14, 0.00,60.00,Tuesday
7592,-1.0312918398778675
5408,18.00000002668819
7437,371469.53085901329
7438,0.0
2,10, 1,10, 0,15, 0.00,60.00,Tuesday
7592,-1.1755982236879097
5408,16.554882819546454
7437,0.0
7438,0.0
2,10, 1,10, 0,16, 0.00,60.00,Tuesday
7592,-1.2820262035907533
5408,16.24044125990555
7437,0.0
7438,0.0
2,10, 1,10, 0,17, 0.00,60.00,Tuesday
7592,-1.277147275770297
5408,16.264259845668936
7437,0.0
7438,0.0
2,10, 1,10, 0,18, 0.00,60.00,Tuesday
7592,-1.287212733853025
5408,16.191541586069893
7437,0.0
7438,0.0
2,10, 1,10, 0,19, 0.00,60.00,Tuesday
7592,-1.3063076781461709
5408,16.079694237544424
7437,0.0
7438,0.0
2,10, 1,10, 0,20, 0.00,60.00,Tuesday
7592,-1.3250613228383548
5408,15.983970002535442
7437,0.0
7438,0.0
2,10, 1,10, 0,21, 0.00,60.00,Tuesday
7592,-1.3386048044700168
5408,15.918752269868153
7437,0.0
7438,0.0
2,10, 1,10, 0,22, 0.00,60.00,Tuesday
7592,-1.3438125929036907
5408,15.89316923266721
7437,0.0
7438,0.0
2,10, 1,10, 0,23, 0.00,60.00,Tuesday
7592,-1.0541196517904586
5408,18.113003688955425
7437,695505.2858996008
7438,0.0
2,10, 1,10, 0,24, 0.00,60.00,Tuesday
7592,-0.9868872716982958
5408,18.0
7437,363474.09497372878
7438,0.0
2,11, 1,11, 0, 1, 0.00,60.00,Wednesday
7592,-0.9787735661686406
5408,18.000000000000005
7437,476454.506862854
7438,0.0
2,11, 1,11, 0, 2, 0.00,60.00,Wednesday
7592,-0.9745372768553983
5408,18.000000000000005
7437,539651.5708933103
7438,0.0
2,11, 1,11, 0, 3, 0.00,60.00,Wednesday
7592,-0.9740393773808859
5408,18.000000000000005
7437,577617.359847971
7438,0.0
2,11, 1,11, 0, 4, 0.00,60.00,Wednesday
7592,-0.9740566857682316
5408,18.000000000000005
7437,597728.811545664
7438,0.0
2,11, 1,11, 0, 5, 0.00,60.00,Wednesday
7592,-0.9736867468333653
5408,18.000000000000015
7437,617107.1689852371
7438,0.0
2,11, 1,11, 0, 6, 0.00,60.00,Wednesday
7592,-0.9746610621240152
5408,18.0
7437,642622.1345652465
7438,0.0
2,11, 1,11, 0, 7, 0.00,60.00,Wednesday
7592,-0.9764237327951019
5408,17.999999999999984
7437,668803.8566750678
7438,0.0
2,11, 1,11, 0, 8, 0.00,60.00,Wednesday
7592,-0.9777186811560473
5408,18.00000000000001
7437,669448.3840347695
7438,0.0
2,11, 1,11, 0, 9, 0.00,60.00,Wednesday
7592,-1.201483376508596
5408,16.075008522537578
7437,0.0
7438,0.0
2,11, 1,11, 0,10, 0.00,60.00,Wednesday
7592,-1.372660874816039
5408,15.612839791253828
7437,0.0
7438,0.0
2,11, 1,11, 0,11, 0.00,60.00,Wednesday
7592,-1.393694008549496
5408,15.621926779908336
7437,0.0
7438,0.0
2,11, 1,11, 0,12, 0.00,60.00,Wednesday
7592,-1.4011868024173569
5408,15.628867236824517
7437,0.0
7438,0.0
2,11, 1,11, 0,13, 0.00,60.00,Wednesday
7592,-1.2740121521634052
5408,16.90928298762371
7437,681578.428907714
7438,0.0
2,11, 1,11, 0,14, 0.00,60.00,Wednesday
7592,-1.0198818086156159
5408,18.000000000100905
7437,585073.7791916062
7438,0.0
2,11, 1,11, 0,15, 0.00,60.00,Wednesday
7592,-1.2016275182823193
5408,16.200446901669268
7437,0.0
7438,0.0
2,11, 1,11, 0,16, 0.00,60.00,Wednesday
7592,-1.3623381127905204
5408,15.702424942197114
7437,0.0
7438,0.0
2,11, 1,11, 0,17, 0.00,60.00,Wednesday
7592,-1.3868933961687633
5408,15.674532957065765
7437,0.0
7438,0.0
2,11, 1,11, 0,18, 0.00,60.00,Wednesday
7592,-1.40013701596978
5408,15.649568584145712
7437,0.0
7438,0.0
2,11, 1,11, 0,19, 0.00,60.00,Wednesday
7592,-1.4059538498231484
5408,15.641053529604362
7437,0.0
7438,0.0
2,11, 1,11, 0,20, 0.00,60.00,Wednesday
7592,-1.4072729488244107
5408,15.647102328728982
7437,0.0
7438,0.0
2,11, 1,11, 0,21, 0.00,60.00,Wednesday
7592,-1.407279876783071
5408,15.652782895389395
7437,0.0
7438,0.0
2,11, 1,11, 0,22, 0.00,60.00,Wednesday
7592,-1.4077488262293665
5408,15.656358654484415
7437,0.0
7438,0.0
2,11, 1,11, 0,23, 0.00,60.00,Wednesday
7592,-1.0883905409024147
5408,18.11114180123301
7437,877292.8484190343
7438,0.0
2,11, 1,11, 0,24, 0.00,60.00,Wednesday
7592,-1.0115230968743785
5408,17.999999999999998
7437,469851.4278514172
7438,0.0
2,12, 1,12, 0, 1, 0.00,60.00,Thursday
7592,-1.0029262045413575
5408,18.00000000000001
7437,514601.3566798221
7438,0.0
2,12, 1,12, 0, 2, 0.00,60.00,Thursday
7592,-0.9985724904051482
5408,17.999999999999998