Program Version,EnergyPlus, Version 8.7.0-78a111df4a, YMD=2019.06.21 03:10
1,5,Environment Title[],Latitude[deg],Longitude[deg],Time Zone[],Elevation[m]
2,6,Day of Simulation[],Month[],Day of Month[],DST Indicator[1=yes 0=no],Hour[],StartMinute[],EndMinute[],DayType
3,3,Cumulative Day of Simulation[],Month[],Day of Month[],DST Indicator[1=yes 0=no],DayType  ! When Daily Report Variables Requested
4,2,Cumulative Days of Simulation[],Month[]  ! When Monthly Report Variables Requested
5,1,Cumulative Days of Simulation[] ! When Run Period Report Variables Requested
1929,1,THERMAL ZONE: SPACE 201,Zone Air Temperature [C] !Hourly
2695,1,THERMAL ZONE: SPACE 201 PEOPLE,Zone Thermal Comfort Fanger Model PMV [] !Hourly
3063,1,THERMAL ZONE: SPACE 305 PTHP,Zone Packaged Terminal Heat Pump Total Heating Energy [J] !Hourly
3064,1,THERMAL ZONE: SPACE 305 PTHP,Zone Packaged Terminal Heat Pump Total Cooling Energy [J] !Hourly
End of Data Dictionary
1,ANN HTG 99.6% CONDNS DB,  29.58, 106.47,   8.00, 259.10
2,1, 1,21, 0, 1, 0.00,60.00,WinterDesignDay
2695,-6.494100027729462
1929,18.000065948409966
3063,4652458.35408782
3064,0.0
2,1, 1,21, 0, 2, 0.00,60.00,WinterDesignDay
2695,-6.49801440365611
1929,18.000049852887565
3063,4671526.089178164
3064,0.0
2,1, 1,21, 0, 3, 0.00,60.00,WinterDesignDay
2695,-6.501280407965105
1929,18.000035806171128
3063,4691337.849487279
3064,0.0
2,1, 1,21, 0, 4, 0.00,60.00,WinterDesignDay
2695,-6.504145595976381
1929,18.00003035769239
3063,4709105.087118788
3064,0.0
2,1, 1,21, 0, 5, 0.00,60.00,WinterDesignDay
2695,-6.506868869683749
1929,18.000023935615859
3063,4729335.078625281
3064,0.0
2,1, 1,21, 0, 6, 0.00,60.00,WinterDesignDay
2695,-6.509128222151953
1929,17.999995921937125
3063,4759702.092694868
3064,0.0
2,1, 1,21, 0, 7, 0.00,60.00,WinterDesignDay
2695,-5.677711829976899
1929,17.99992745597424
3063,4798823.013852218
3064,0.0
2,1, 1,21, 0, 8, 0.00,60.00,WinterDesignDay
2695,-5.674824859165883
1929,17.999833328477334
3063,5185312.3301498149
3064,0.0
2,1, 1,21, 0, 9, 0.00,60.00,WinterDesignDay
2695,-5.319621325396445
1929,18.000099127264407
3063,6310378.692511811
3064,0.0
2,1, 1,21, 0,10, 0.00,60.00,WinterDesignDay
2695,-5.300806996659788
1929,18.00070653787316
3063,7304556.979247845
3064,0.0
2,1, 1,21, 0,11, 0.00,60.00,WinterDesignDay
2695,-5.288923697105115
1929,18.000900722155675
3063,7021262.973590033
3064,0.0
2,1, 1,21, 0,12, 0.00,60.00,WinterDesignDay
2695,-5.281176961186315
1929,18.00092783310383
3063,6834820.355085444
3064,0.0
2,1, 1,21, 0,13, 0.00,60.00,WinterDesignDay
2695,-5.276946787999676
1929,18.00084191626067
3063,6365992.979268512
3064,0.0
2,1, 1,21, 0,14, 0.00,60.00,WinterDesignDay
2695,-5.273332809298305
1929,18.000818049632234
3063,6292799.930371193
3064,0.0
2,1, 1,21, 0,15, 0.00,60.00,WinterDesignDay
2695,-5.2686916702881929
1929,18.000963498328479
3063,6555749.929283804
3064,0.0
2,1, 1,21, 0,16, 0.00,60.00,WinterDesignDay
2695,-5.266854225259883
1929,18.001090790396938
3063,6543103.642048809
3064,0.0
2,1, 1,21, 0,17, 0.00,60.00,WinterDesignDay
2695,-5.26812156219479
1929,18.001149263266425
3063,6600349.925037055
3064,0.0
2,1, 1,21, 0,18, 0.00,60.00,WinterDesignDay
2695,-5.270475441271064
1929,18.001195776946945
3063,6687286.06484322
3064,0.0
2,1, 1,21, 0,19, 0.00,60.00,WinterDesignDay
2695,-5.615722085368183
1929,18.00068383884412
3063,5222321.861200299
3064,0.0
2,1, 1,21, 0,20, 0.00,60.00,WinterDesignDay
2695,-5.631283720618344
1929,18.000359638453316
3063,5398744.133560753
3064,0.0
2,1, 1,21, 0,21, 0.00,60.00,WinterDesignDay
2695,-5.641590355374011
1929,18.00018913503966
3063,4569422.113408958
3064,0.0
2,1, 1,21, 0,22, 0.00,60.00,WinterDesignDay
2695,-5.6496009216266549
1929,18.00011541300546
3063,4613233.244202633
3064,0.0
2,1, 1,21, 0,23, 0.00,60.00,WinterDesignDay
2695,-5.655244616405231
1929,18.000087777469383
3063,4633960.793547914
3064,0.0
2,1, 1,21, 0,24, 0.00,60.00,WinterDesignDay
2695,-5.659832548377054
1929,18.000075340830418
3063,4647584.930985991
3064,0.0
1,ANN CLG 4% CONDNS DB =>MWB,  29.58, 106.47,   8.00, 259.10
2,1, 7,21, 0, 1, 0.00,60.00,SummerDesignDay
2695,-3.153315153150038
1929,25.99975931897509
3063,0.0
3064,880821.7347470472
2,1, 7,21, 0, 2, 0.00,60.00,SummerDesignDay
2695,-3.163578275605689
1929,25.99983071433998
3063,0.0
3064,848369.9011301985
2,1, 7,21, 0, 3, 0.00,60.00,SummerDesignDay
2695,-3.171532568620568
1929,25.999879707311007
3063,0.0
3064,821236.1647047252
2,1, 7,21, 0, 4, 0.00,60.00,SummerDesignDay
2695,-3.1780081742143486
1929,25.999910387366698
3063,0.0
3064,797861.8902122573
2,1, 7,21, 0, 5, 0.00,60.00,SummerDesignDay
2695,-3.1836035513806566
1929,25.999931954534117
3063,0.0
3064,775649.1964029189
2,1, 7,21, 0, 6, 0.00,60.00,SummerDesignDay
2695,-3.1884606954244409
1929,25.99996108451285
3063,0.0
3064,750299.0518322608
2,1, 7,21, 0, 7, 0.00,60.00,SummerDesignDay
2695,-3.891842988139677
1929,25.999996554252303
3063,0.0
3064,720193.3137811485
2,1, 7,21, 0, 8, 0.00,60.00,SummerDesignDay
2695,-3.868889646742374
1929,25.999682157367606
3063,0.0
3064,1125136.9019891956
2,1, 7,21, 0, 9, 0.00,60.00,SummerDesignDay
2695,-3.810650170185884
1929,25.996909335166128
3063,0.0
3064,3787255.930098286
2,1, 7,21, 0,10, 0.00,60.00,SummerDesignDay
2695,-3.660113839524563
1929,26.581797520502588
3063,0.0
3064,6870198.511822553
2,1, 7,21, 0,11, 0.00,60.00,SummerDesignDay
2695,-3.5469988512121248
1929,26.98576955789278
3063,0.0
3064,6973297.457385929
2,1, 7,21, 0,12, 0.00,60.00,SummerDesignDay
2695,-3.4771438165201258
1929,27.28732703511135
3063,0.0
3064,6913898.987438815
2,1, 7,21, 0,13, 0.00,60.00,SummerDesignDay
2695,-3.5138018763727314
1929,26.964782965200454
3063,0.0
3064,6569067.035623224
2,1, 7,21, 0,14, 0.00,60.00,SummerDesignDay
2695,-3.5203436888257735
1929,27.020404032788936
3063,0.0
3064,6329981.547925524
2,1, 7,21, 0,15, 0.00,60.00,SummerDesignDay
2695,-3.4102791638786225
1929,27.629777282158697
3063,0.0
3064,6660677.961111964
2,1, 7,21, 0,16, 0.00,60.00,SummerDesignDay
2695,-3.364788664263667
1929,27.676223345366883
3063,0.0
3064,6920680.911207904
2,1, 7,21, 0,17, 0.00,60.00,SummerDesignDay
2695,-3.3803969220215275
1929,27.553385132675314
3063,0.0
3064,7013883.065121887
2,1, 7,21, 0,18, 0.00,60.00,SummerDesignDay
2695,-3.4073324177486095
1929,27.37899205022543
3063,0.0
3064,7108937.324482106
2,1, 7,21, 0,19, 0.00,60.00,SummerDesignDay
2695,-3.5814797973999155
1929,26.04759391837983
3063,0.0
3064,4159881.562253887
2,1, 7,21, 0,20, 0.00,60.00,SummerDesignDay
2695,-3.6917159234967888
1929,25.997022683217439
3063,0.0
3064,3390499.7125270494
2,1, 7,21, 0,21, 0.00,60.00,SummerDesignDay
2695,-3.7257626955278408
1929,25.998587670801255
3063,0.0
3064,1361078.8399399624
2,1, 7,21, 0,22, 0.00,60.00,SummerDesignDay
2695,-3.777784248327556
1929,25.999173694972453
3063,0.0
3064,1133567.7811734409
2,1, 7,21, 0,23, 0.00,60.00,SummerDesignDay
2695,-3.809119186489172
1929,25.999475788537607
3063,0.0
3064,1018974.5925029233
2,1, 7,21, 0,24, 0.00,60.00,SummerDesignDay
2695,-3.8296794229271664
1929,25.99965971858965
3063,0.0
3064,948961.9728207823
1,RUN PERIOD 1,  29.58, 106.47,   8.00, 259.10
2,1, 1, 1, 0, 1, 0.00,60.00,Holiday
2695,-6.116374966313093
1929,18.000204105670297
3063,1707043.196432631
3064,0.0
2,1, 1, 1, 0, 2, 0.00,60.00,Holiday
2695,-6.11958566976303
1929,18.000080140397406
3063,1734756.8892451879
3064,0.0
2,1, 1, 1, 0, 3, 0.00,60.00,Holiday
2695,-6.121222258606987
1929,18.000056168009814
3063,1739111.863445196
3064,0.0
2,1, 1, 1, 0, 4, 0.00,60.00,Holiday
2695,-6.123060962161433
1929,18.00007463868063
3063,1738150.693984337
3064,0.0
2,1, 1, 1, 0, 5, 0.00,60.00,Holiday
2695,-6.126260105436873
1929,18.000128088332834
3063,1732919.6928325643
3064,0.0
2,1, 1, 1, 0, 6, 0.00,60.00,Holiday
2695,-6.133134946785861
1929,18.000164354924129
3063,1672948.7710433636
3064,0.0
2,1, 1, 1, 0, 7, 0.00,60.00,Holiday
2695,-6.539470444645793
1929,18.000123929095758
3063,1719869.1953647156
3064,0.0
2,1, 1, 1, 0, 8, 0.00,60.00,Holiday
2695,-6.548659636605666
1929,18.00007992872341
3063,1780169.3018617372
3064,0.0
2,1, 1, 1, 0, 9, 0.00,60.00,Holiday
2695,-6.054820400582827
1929,18.000040292369947
3063,1839535.4822831664
3064,0.0
2,1, 1, 1, 0,10, 0.00,60.00,Holiday
2695,-6.057655261337278
1929,18.000009017023733
3063,1903199.6163476653
3064,0.0
2,1, 1, 1, 0,11, 0.00,60.00,Holiday
2695,-6.0585876059741319
1929,18.000005593521295
3063,1945854.0480143382
3064,0.0
2,1, 1, 1, 0,12, 0.00,60.00,Holiday
2695,-6.0592579310030969
1929,18.000002279170219
3063,1967355.4628675434
3064,0.0
2,1, 1, 1, 0,13, 0.00,60.00,Holiday
2695,-6.060036737395766
1929,18.000000667290519
3063,2009624.6375112648
3064,0.0
2,1, 1, 1, 0,14, 0.00,60.00,Holiday
2695,-6.058825605992767
1929,18.000000553163589
3063,2049485.8841800274
3064,0.0
2,1, 1, 1, 0,15, 0.00,60.00,Holiday
2695,-6.0552793544148459
1929,18.000000445901454
3063,2073982.2247177798
3064,0.0
2,1, 1, 1, 0,16, 0.00,60.00,Holiday
2695,-6.049243751357095
1929,18.000000347472314
3063,2085494.4820193304
3064,0.0
2,1, 1, 1, 0,17, 0.00,60.00,Holiday
2695,-6.040635369410734
1929,18.000000271366529
3063,2081466.397338946
3064,0.0
2,1, 1, 1, 0,18, 0.00,60.00,Holiday
2695,-6.029873922778575
1929,18.000000223961107
3063,2055886.2005397995
3064,0.0
2,1, 1, 1, 0,19, 0.00,60.00,Holiday
2695,-6.51169057375575
1929,18.00000019856199
3063,2006347.6486754225
3064,0.0
2,1, 1, 1, 0,20, 0.00,60.00,Holiday
2695,-6.499049019928752
1929,18.000000202139995
3063,1916563.5059533902
3064,0.0
2,1, 1, 1, 0,21, 0.00,60.00,Holiday
2695,-6.491846227959432
1929,18.00005113744508
3063,1803352.3232282396
3064,0.0
2,1, 1, 1, 0,22, 0.00,60.00,Holiday
2695,-6.491935630340873
1929,18.00028050773272
3063,1718080.027201691
3064,0.0
2,1, 1, 1, 0,23, 0.00,60.00,Holiday
2695,-6.497201071168326
1929,18.000374885324836
3063,1679740.9700184859
3064,0.0
2,1, 1, 1, 0,24, 0.00,60.00,Holiday
2695,-6.504535923297787
1929,18.000368271964125
3063,1670456.665531293
3064,0.0
2,2, 1, 2, 0, 1, 0.00,60.00,Holiday
2695,-6.511490330364946
1929,18.000336725302338
3063,1670720.9702527277
3064,0.0
2,2, 1, 2, 0, 2, 0.00,60.00,Holiday
2695,-6.518535464507264
1929,18.000276379709477
3063,1684651.064790292
3064,0.0
2,2, 1, 2, 0, 3, 0.00,60.00,Holiday
2695,-6.524983495137683
1929,18.00020111878701
3063,1707591.2499636498
3064,0.0
2,2, 1, 2, 0, 4, 0.00,60.00,Holiday
2695,-6.530052923385617
1929,18.00014245173441
3063,1729978.476220913
3064,0.0
2,2, 1, 2, 0, 5, 0.00,60.00,Holiday
2695,-6.53419055811283
1929,18.000103105127559
3063,1752186.1770284533
3064,0.0
2,2, 1, 2, 0, 6, 0.00,60.00,Holiday
2695,-6.537800710562525
1929,18.000076871695439
3063,1776167.5538253175
3064,0.0
2,2, 1, 2, 0, 7, 0.00,60.00,Holiday
2695,-6.641523284003237
1929,18.000066040566759
3063,1799961.3452050316
3064,0.0
2,2, 1, 2, 0, 8, 0.00,60.00,Holiday
2695,-6.64488103958301
1929,18.000050998849095
3063,1829177.9137573788
3064,0.0
2,2, 1, 2, 0, 9, 0.00,60.00,Holiday
2695,-6.1306828457371529
1929,18.00000490608514
3063,1879142.913051066
3064,0.0
2,2, 1, 2, 0,10, 0.00,60.00,Holiday
2695,-6.130904099936386
1929,18.000000528224036
3063,1933284.4437266384
3064,0.0
2,2, 1, 2, 0,11, 0.00,60.00,Holiday
2695,-6.129552359354425
1929,18.000000470507488
3063,1957334.6599072149
3064,0.0
2,2, 1, 2, 0,12, 0.00,60.00,Holiday
2695,-6.1285737667406379
1929,18.000000428990697
3063,1976160.7248789203
3064,0.0
2,2, 1, 2, 0,13, 0.00,60.00,Holiday
2695,-6.127687033770347
1929,18.000000396126166
3063,1993213.0366416134
3064,0.0
2,2, 1, 2, 0,14, 0.00,60.00,Holiday
2695,-6.126593307911222
1929,18.000000359519495
3063,2006468.5239027446
3064,0.0
2,2, 1, 2, 0,15, 0.00,60.00,Holiday
2695,-6.124343610025066
1929,18.000000312386928
3063,2021811.7389395107
3064,0.0
2,2, 1, 2, 0,16, 0.00,60.00,Holiday
2695,-6.119753637958868
1929,18.000000268937375
3063,2024764.7700590566
3064,0.0
2,2, 1, 2, 0,17, 0.00,60.00,Holiday
2695,-6.113322033566228
1929,18.000000255606598
3063,1977668.2631648898
3064,0.0
2,2, 1, 2, 0,18, 0.00,60.00,Holiday
2695,-6.107995621811675
1929,18.00000027098238
3063,1901653.9823202454
3064,0.0
2,2, 1, 2, 0,19, 0.00,60.00,Holiday
2695,-6.6168839441644879
1929,18.000022146692336
3063,1833416.5723708794
3064,0.0
2,2, 1, 2, 0,20, 0.00,60.00,Holiday
2695,-6.614995647061639
1929,18.000091337836808
3063,1777200.413266004
3064,0.0
2,2, 1, 2, 0,21, 0.00,60.00,Holiday
2695,-6.614611959588224
1929,18.00008932731436
3063,1747324.330182251
3064,0.0
2,2, 1, 2, 0,22, 0.00,60.00,Holiday
2695,-6.6140948947855489
1929,18.000020464210473
3063,1744470.894408989
3064,0.0
2,2, 1, 2, 0,23, 0.00,60.00,Holiday
2695,-6.612536580149395
1929,18.000000372158668
3063,1738396.1483826768
3064,0.0
2,2, 1, 2, 0,24, 0.00,60.00,Holiday
2695,-6.6115745678072719
1929,18.000041841249624
3063,1714280.045489462
3064,0.0
2,3, 1, 3, 0, 1, 0.00,60.00,Holiday
2695,-6.613386756330102
1929,18.000111998633427
3063,1697029.3126747269
3064,0.0
2,3, 1, 3, 0, 2, 0.00,60.00,Holiday
2695,-6.617578268182122
1929,18.0002032301279
3063,1677190.4883339133
3064,0.0
2,3, 1, 3, 0, 3, 0.00,60.00,Holiday
2695,-6.625247781578156
1929,18.00024396712514
3063,1630739.4368625968
3064,0.0
2,3, 1, 3, 0, 4, 0.00,60.00,Holiday
2695,-6.638497981087849
1929,18.000158899783469
3063,1670464.7583135223
3064,0.0
2,3, 1, 3, 0, 5, 0.00,60.00,Holiday
2695,-6.648162239846216
1929,18.000082733264287
3063,1746321.022511419
3064,0.0
2,3, 1, 3, 0, 6, 0.00,60.00,Holiday
2695,-6.653835853349996
1929,18.00004084225252
3063,1797808.7903775499
3064,0.0
2,3, 1, 3, 0, 7, 0.00,60.00,Holiday
2695,-6.5593002558552488
1929,18.000007574210078
3063,1866723.1972462447
3064,0.0
2,3, 1, 3, 0, 8, 0.00,60.00,Holiday
2695,-6.55980846192974
1929,18.00000360112995
3063,1891345.056037013
3064,0.0
2,3, 1, 3, 0, 9, 0.00,60.00,Holiday
2695,-6.059938299272566
1929,18.000000701675476
3063,1923035.5739948799
3064,0.0
2,3, 1, 3, 0,10, 0.00,60.00,Holiday
2695,-6.060724752829518
1929,18.000000657838848
3063,1957023.9826318962
3064,0.0
2,3, 1, 3, 0,11, 0.00,60.00,Holiday
2695,-6.061707369816939
1929,18.000000624771116
3063,1992177.0212482964
3064,0.0
2,3, 1, 3, 0,12, 0.00,60.00,Holiday
2695,-6.062641580264959
1929,18.000000594222084
3063,2024309.4713015827
3064,0.0
2,3, 1, 3, 0,13, 0.00,60.00,Holiday
2695,-6.063831908358825
1929,18.00000057297904
3063,2054858.7283802336
3064,0.0
2,3, 1, 3, 0,14, 0.00,60.00,Holiday
2695,-6.065048967149591
1929,18.000000557541005
3063,2085435.6460063593
3064,0.0
2,3, 1, 3, 0,15, 0.00,60.00,Holiday
2695,-6.066109923784002
1929,18.000000548836117
3063,2115488.7787888066
3064,0.0
2,3, 1, 3, 0,16, 0.00,60.00,Holiday
2695,-6.066778208706336
1929,18.000000544497124
3063,2142157.480660213
3064,0.0
2,3, 1, 3, 0,17, 0.00,60.00,Holiday
2695,-6.066943826548365
1929,18.000000539244927
3063,2170628.5316719615
3064,0.0
2,3, 1, 3, 0,18, 0.00,60.00,Holiday
2695,-6.066257219795477
1929,18.000000539975713
3063,2191461.0548379009
3064,0.0
2,3, 1, 3, 0,19, 0.00,60.00,Holiday
2695,-6.568115291455932
1929,18.000000538145455
3063,2208385.1290168848
3064,0.0
2,3, 1, 3, 0,20, 0.00,60.00,Holiday
2695,-6.566040040264759
1929,18.000000544112184
3063,2221360.855496104
3064,0.0
2,3, 1, 3, 0,21, 0.00,60.00,Holiday
2695,-6.563604226562956
1929,18.000000552996779
3063,2227634.927594295
3064,0.0
2,3, 1, 3, 0,22, 0.00,60.00,Holiday
2695,-6.561354975047705
1929,18.000000563762485
3063,2228556.5805654826
3064,0.0
2,3, 1, 3, 0,23, 0.00,60.00,Holiday
2695,-6.559735741697328
1929,18.000000580115679
3063,2230606.775227897
3064,0.0
2,3, 1, 3, 0,24, 0.00,60.00,Holiday
2695,-6.558794932753962
1929,18.000000596947794
3063,2228463.3511274915
3064,0.0
2,4, 1, 4, 0, 1, 0.00,60.00,Wednesday
2695,-6.558851685081653
1929,18.00000061435483
3063,2234862.6225074569
3064,0.0
2,4, 1, 4, 0, 2, 0.00,60.00,Wednesday
2695,-6.55917944744263
1929,18.000001907416796
3063,2239250.677306227
3064,0.0
2,4, 1, 4, 0, 3, 0.00,60.00,Wednesday
2695,-6.560029154063099
1929,18.000001370544046
3063,2248980.7122917885
3064,0.0
2,4, 1, 4, 0, 4, 0.00,60.00,Wednesday
2695,-6.560734864841355
1929,18.00000067000231
3063,2262385.0076112814
3064,0.0
2,4, 1, 4, 0, 5, 0.00,60.00,Wednesday
2695,-6.561069705295118
1929,18.000000680875023
3063,2278389.0011888786
3064,0.0
2,4, 1, 4, 0, 6, 0.00,60.00,Wednesday
2695,-6.5608455119014519
1929,18.000000694394818
3063,2289067.255760111
3064,0.0
2,4, 1, 4, 0, 7, 0.00,60.00,Wednesday
2695,-6.6902257155448698
1929,18.000000705847936
3063,2294483.725505207
3064,0.0
2,4, 1, 4, 0, 8, 0.00,60.00,Wednesday
2695,-6.688678916556555
1929,18.000025307175986
3063,2290805.3404713945
3064,0.0
2,4, 1, 4, 0, 9, 0.00,60.00,Wednesday
2695,-6.152135030923897
1929,18.00020548818951
3063,2199946.3225058016
3064,0.0
2,4, 1, 4, 0,10, 0.00,60.00,Wednesday
2695,-6.134638993044935
1929,18.00041996054069
3063,2045336.2397819195
3064,0.0
2,4, 1, 4, 0,11, 0.00,60.00,Wednesday
2695,-6.128638841529264
1929,18.000510050578524
3063,1957873.0976943016
3064,0.0
2,4, 1, 4, 0,12, 0.00,60.00,Wednesday
2695,-6.129583057840475
1929,18.000489303042384
3063,1898032.7362134755
3064,0.0
2,4, 1, 4, 0,13, 0.00,60.00,Wednesday
2695,-6.1313991050863498
1929,18.00047522335497
3063,1862997.2870432777
3064,0.0
2,4, 1, 4, 0,14, 0.00,60.00,Wednesday
2695,-6.132007996030215
1929,18.000411147179436
3063,1777875.0487562633
3064,0.0
2,4, 1, 4, 0,15, 0.00,60.00,Wednesday
2695,-6.126570771049238
1929,18.000292556988936
3063,1572574.3634625867
3064,0.0
2,4, 1, 4, 0,16, 0.00,60.00,Wednesday
2695,-6.116065552716468
1929,18.000224480008709
3063,1405042.5892140868
3064,0.0
2,4, 1, 4, 0,17, 0.00,60.00,Wednesday
2695,-6.105372768518467
1929,18.000223103038086
3063,1318050.2389507725
3064,0.0
2,4, 1, 4, 0,18, 0.00,60.00,Wednesday
2695,-6.099469667069324
1929,18.0002473259983
3063,1320961.9368733818
3064,0.0
2,4, 1, 4, 0,19, 0.00,60.00,Wednesday
2695,-6.619129135033037
1929,18.000403168205105
3063,1792602.1933051807
3064,0.0
2,4, 1, 4, 0,20, 0.00,60.00,Wednesday
2695,-6.631289151834186
1929,18.00027514838051
3063,1853681.8851858336
3064,0.0
2,4, 1, 4, 0,21, 0.00,60.00,Wednesday
2695,-6.64002156189938
1929,18.000255355615754
3063,1975407.0515759343
3064,0.0
2,4, 1, 4, 0,22, 0.00,60.00,Wednesday
2695,-6.646790657137345
1929,18.000192487156509
3063,1991342.3568181126
3064,0.0
2,4, 1, 4, 0,23, 0.00,60.00,Wednesday
2695,-6.651877295221284
1929,18.000147753216589
3063,1999199.9529136518
3064,0.0
2,4, 1, 4, 0,24, 0.00,60.00,Wednesday
2695,-6.65620419408792
1929,18.000131257688058
3063,2001987.592406322
3064,0.0
2,5, 1, 5, 0, 1, 0.00,60.00,Thursday
2695,-6.660891094306501
1929,18.000118559755827
3063,2008454.7543025283
3064,0.0
2,5, 1, 5, 0, 2, 0.00,60.00,Thursday
2695,-6.665217724913508
1929,18.00011263460862
3063,2016019.5783189415
3064,0.0
2,5, 1, 5, 0, 3, 0.00,60.00,Thursday
2695,-6.669246157092047
1929,18.00012710646997
3063,2020208.7942975017
3064,0.0
2,5, 1, 5, 0, 4, 0.00,60.00,Thursday
2695,-6.6738710716368578
1929,18.000158479615846
3063,2021845.4664526643
3064,0.0
2,5, 1, 5, 0, 5, 0.00,60.00,Thursday
2695,-6.679241794537975
1929,18.000163725756328
3063,2033017.0780707072
3064,0.0
2,5, 1, 5, 0, 6, 0.00,60.00,Thursday
2695,-6.684542320414104
1929,18.000150887370883
3063,2048486.026684979
3064,0.0
2,5, 1, 5, 0, 7, 0.00,60.00,Thursday
2695,-6.701325913428021
1929,18.000163097660424
3063,2054816.997761023
3064,0.0
2,5, 1, 5, 0, 8, 0.00,60.00,Thursday
2695,-6.705424848661948
1929,18.00015559946769
3063,2067274.2828254884
3064,0.0
2,5, 1, 5, 0, 9, 0.00,60.00,Thursday
2695,-6.170434588818967
1929,18.000226022741754
3063,2000603.8852294414
3064,0.0
2,5, 1, 5, 0,10, 0.00,60.00,Thursday
2695,-6.153032830164111
1929,18.00036569226418
3063,1859107.9073450757
3064,0.0
2,5, 1, 5, 0,11, 0.00,60.00,Thursday
2695,-6.1433596592097079
1929,18.00042263501815
3063,1766794.4549702
3064,0.0
2,5, 1, 5, 0,12, 0.00,60.00,Thursday
2695,-6.139511214918474
1929,18.000415854058049
3063,1704540.1508823417
3064,0.0
2,5, 1, 5, 0,13, 0.00,60.00,Thursday
2695,-6.137565801902324
1929,18.00039015494843
3063,1684756.0557339234
3064,0.0
2,5, 1, 5, 0,14, 0.00,60.00,Thursday
2695,-6.133580818536461
1929,18.00036416900244
3063,1621770.9830966267
3064,0.0
2,5, 1, 5, 0,15, 0.00,60.00,Thursday
2695,-6.1279768154198719
1929,18.000320277015534
3063,1485889.6588118026
3064,0.0
2,5, 1, 5, 0,16, 0.00,60.00,Thursday
2695,-6.122763326130419
1929,18.000295100336698
3063,1392382.5103538302
3064,0.0
2,5, 1, 5, 0,17, 0.00,60.00,Thursday
2695,-6.118115477559365
1929,18.000262520566698
3063,1299266.6623808623
3064,0.0
2,5, 1, 5, 0,18, 0.00,60.00,Thursday
2695,-6.113667287713167
1929,18.000237161622665
3063,1214332.4542503497
3064,0.0
2,5, 1, 5, 0,19, 0.00,60.00,Thursday
2695,-6.636067791077188
1929,18.000375970603828
3063,1614604.6789621749
3064,0.0
2,5, 1, 5, 0,20, 0.00,60.00,Thursday
2695,-6.648711370223175
1929,18.000259036829389
3063,1652365.3066876834
3064,0.0
2,5, 1, 5, 0,21, 0.00,60.00,Thursday
2695,-6.658046727505443
1929,18.00026799343072
3063,1822258.4925320354
3064,0.0
2,5, 1, 5, 0,22, 0.00,60.00,Thursday
2695,-6.665641767364932
1929,18.00023472274057
3063,1837694.5356255025
3064,0.0
2,5, 1, 5, 0,23, 0.00,60.00,Thursday
2695,-6.672165682814
1929,18.000186616969157
3063,1854459.2742691064
3064,0.0
2,5, 1, 5, 0,24, 0.00,60.00,Thursday
2695,-6.677233159966377
1929,18.000092480111986
3063,1884233.1571285828
3064,0.0
2,6, 1, 6, 0, 1, 0.00,60.00,Friday
2695,-6.679643694940708
1929,18.00003790929954
3063,1900792.530575037
3064,0.0
2,6, 1, 6, 0, 2, 0.00,60.00,Friday
2695,-6.681180356176682
1929,18.0000046758692
3063,1919099.4745106227
3064,0.0
2,6, 1, 6, 0, 3, 0.00,60.00,Friday
2695,-6.681663365579055
1929,18.000000503952135
3063,1939328.683269953
3064,0.0
2,6, 1, 6, 0, 4, 0.00,60.00,Friday
2695,-6.6811926709149749
1929,18.000000521646
3063,1955352.9390351615
3064,0.0
2,6, 1, 6, 0, 5, 0.00,60.00,Friday
2695,-6.680210751020812
1929,18.000000533126529
3063,1968356.344794203
3064,0.0
2,6, 1, 6, 0, 6, 0.00,60.00,Friday
2695,-6.679107339845589
1929,18.000000539686928
3063,1981058.036807343
3064,0.0
2,6, 1, 6, 0, 7, 0.00,60.00,Friday
2695,-6.675362794102269
1929,18.00000054634806
3063,1982581.5058379253
3064,0.0
2,6, 1, 6, 0, 8, 0.00,60.00,Friday
2695,-6.673976256024581
1929,18.00001928534851
3063,1977302.0034385718
3064,0.0
2,6, 1, 6, 0, 9, 0.00,60.00,Friday
2695,-6.140479405357851
1929,18.000166890031904
3063,1857323.2463895824
3064,0.0
2,6, 1, 6, 0,10, 0.00,60.00,Friday
2695,-6.121225016195225
1929,18.000296927674364
3063,1578640.3997624983
3064,0.0
2,6, 1, 6, 0,11, 0.00,60.00,Friday
2695,-6.112322399997968
1929,18.0003062065999
3063,1388042.9843877515
3064,0.0
2,6, 1, 6, 0,12, 0.00,60.00,Friday
2695,-6.10984097432038
1929,18.00023950297086
3063,1222859.5545014693
3064,0.0
2,6, 1, 6, 0,13, 0.00,60.00,Friday
2695,-6.108313143716855
1929,18.000211165447884
3063,1149866.1273956786
3064,0.0
2,6, 1, 6, 0,14, 0.00,60.00,Friday
2695,-6.105196962060936
1929,18.000158673157768
3063,963802.6633245502
3064,0.0
2,6, 1, 6, 0,15, 0.00,60.00,Friday
2695,-6.0767698020338118
1929,18.15270933091828
3063,533900.4562568606
3064,0.0
2,6, 1, 6, 0,16, 0.00,60.00,Friday
2695,-6.012207758533774
1929,18.415988492808724
3063,237631.75334617246
3064,0.0
2,6, 1, 6, 0,17, 0.00,60.00,Friday
2695,-5.959624291528606
1929,18.558090649741105
3063,85100.35581590983
3064,0.0
2,6, 1, 6, 0,18, 0.00,60.00,Friday
2695,-5.938253747361675
1929,18.564396248962223
3063,74490.04180853909
3064,0.0
2,6, 1, 6, 0,19, 0.00,60.00,Friday
2695,-6.504831015906928
1929,18.024069533530285
3063,1011136.7711427467
3064,0.0
2,6, 1, 6, 0,20, 0.00,60.00,Friday
2695,-6.536500399523572
1929,18.00015206317603
3063,1017085.4608274802
3064,0.0
2,6, 1, 6, 0,21, 0.00,60.00,Friday
2695,-6.540747235131959
1929,18.000233540992057
3063,1298025.9004710606
3064,0.0
2,6, 1, 6, 0,22, 0.00,60.00,Friday
2695,-6.542253221365264
1929,18.000199136405646
3063,1271915.492669152
3064,0.0
2,6, 1, 6, 0,23, 0.00,60.00,Friday
2695,-6.543914038173703
1929,18.000189015236797
3063,1248260.181644447
3064,0.0
2,6, 1, 6, 0,24, 0.00,60.00,Friday
2695,-6.546625240564765
1929,18.00018974220832
3063,1232931.96272489
3064,0.0
2,7, 1, 7, 0, 1, 0.00,60.00,Saturday
2695,-6.550555365075688
1929,18.00018171537862
3063,1230314.8207070125
3064,0.0
2,7, 1, 7, 0, 2, 0.00,60.00,Saturday
2695,-6.555257191846873
1929,18.000186413832034
3063,1231917.7681317218
3064,0.0
2,7, 1, 7, 0, 3, 0.00,60.00,Saturday
2695,-6.5609704030999949
1929,18.000203767985714
3063,1236488.7793882662
3064,0.0
2,7, 1, 7, 0, 4, 0.00,60.00,Saturday
2695,-6.568028075821613
1929,18.000227236425137
3063,1244116.7190207164
3064,0.0
2,7, 1, 7, 0, 5, 0.00,60.00,Saturday
2695,-6.576675735888102
1929,18.000257252991515
3063,1232014.937305156
3064,0.0
2,7, 1, 7, 0, 6, 0.00,60.00,Saturday
2695,-6.592619971877309
1929,18.000230000035427
3063,1186284.5642436716
3064,0.0
2,7, 1, 7, 0, 7, 0.00,60.00,Saturday
2695,-6.405260587787672
1929,18.000159038939626
3063,1265639.592738224
3064,0.0
2,7, 1, 7, 0, 8, 0.00,60.00,Saturday
2695,-6.419829660136597
1929,18.0000982671276
3063,1345293.561679567
3064,0.0
2,7, 1, 7, 0, 9, 0.00,60.00,Saturday
2695,-5.953631987611242
1929,18.000060649569649
3063,1409665.8958001754
3064,0.0
2,7, 1, 7, 0,10, 0.00,60.00,Saturday
2695,-5.960099538500061
1929,18.000046497233215
3063,1460668.7121788185
3064,0.0
2,7, 1, 7, 0,11, 0.00,60.00,Saturday
2695,-5.96568973183252
1929,18.000034282247257
3063,1517306.3271501184
3064,0.0
2,7, 1, 7, 0,12, 0.00,60.00,Saturday
2695,-5.970151804899399
1929,18.000023937606227
3063,1568738.1800516693
3064,0.0
2,7, 1, 7, 0,13, 0.00,60.00,Saturday
2695,-5.97297589941186
1929,18.0000018987667
3063,1615511.948362878
3064,0.0
2,7, 1, 7, 0,14, 0.00,60.00,Saturday
2695,-5.9732267129064129
1929,18.00000021880518
3063,1653533.3622945017
3064,0.0
2,7, 1, 7, 0,15, 0.00,60.00,Saturday
2695,-5.969874919468935
1929,18.000000140082169
3063,1677839.9717169458
3064,0.0
2,7, 1, 7, 0,16, 0.00,60.00,Saturday
2695,-5.961847639551242
1929,18.00000009203305
3063,1666279.9967992386
3064,0.0
2,7, 1, 7, 0,17, 0.00,60.00,Saturday
2695,-5.9505130900840659
1929,18.000000076427264
3063,1585260.7868219186
3064,0.0
2,7, 1, 7, 0,18, 0.00,60.00,Saturday
2695,-5.939357874031095
1929,18.0000000732785
3063,1481142.0483297008
3064,0.0
2,7, 1, 7, 0,19, 0.00,60.00,Saturday
2695,-6.400407406267948
1929,18.000000071812655
3063,1385598.8550200747
3064,0.0
2,7, 1, 7, 0,20, 0.00,60.00,Saturday
2695,-6.388616339511977
1929,18.0000000713738
3063,1304375.4885385568
3064,0.0
2,7, 1, 7, 0,21, 0.00,60.00,Saturday
2695,-6.378183773896759
1929,18.00000007221873
3063,1237696.2001851069
3064,0.0
2,7, 1, 7, 0,22, 0.00,60.00,Saturday
2695,-6.369787616989842
1929,18.00000007448296
3063,1186878.3450467247
3064,0.0
2,7, 1, 7, 0,23, 0.00,60.00,Saturday
2695,-6.363641596605703
1929,18.000000077681393
3063,1150581.3854935407
3064,0.0
2,7, 1, 7, 0,24, 0.00,60.00,Saturday
2695,-6.359795912577698
1929,18.000002451633639
3063,1127278.0433228587
3064,0.0
2,8, 1, 8, 0, 1, 0.00,60.00,Sunday
2695,-6.3579607138959599
1929,18.000005825744326
3063,1122546.7019289756
3064,0.0
2,8, 1, 8, 0, 2, 0.00,60.00,Sunday
2695,-6.35733500976609
1929,18.000006834939496
3063,1128651.4861684615
3064,0.0
2,8, 1, 8, 0, 3, 0.00,60.00,Sunday
2695,-6.357727951847
1929,18.000012692478589
3063,1140582.8445145847
3064,0.0
2,8, 1, 8, 0, 4, 0.00,60.00,Sunday
2695,-6.35907191875858
1929,18.000018738297169
3063,1158985.4581929423
3064,0.0
2,8, 1, 8, 0, 5, 0.00,60.00,Sunday
2695,-6.361199638470416
1929,18.00001785521336
3063,1185325.8824158232
3064,0.0
2,8, 1, 8, 0, 6, 0.00,60.00,Sunday
2695,-6.363847360157592
1929,18.0000243983243
3063,1212337.4761785623
3064,0.0
2,8, 1, 8, 0, 7, 0.00,60.00,Sunday
2695,-6.576211381465946
1929,18.000034919287129
3063,1241074.158296344
3064,0.0
2,8, 1, 8, 0, 8, 0.00,60.00,Sunday
2695,-6.580221416391879
1929,18.00004161440784
3063,1273725.04216331
3064,0.0
2,8, 1, 8, 0, 9, 0.00,60.00,Sunday
2695,-6.080280098902726
1929,18.00004070601338
3063,1311270.495966527
3064,0.0
2,8, 1, 8, 0,10, 0.00,60.00,Sunday
2695,-6.0839703904004589
1929,18.000033379787739
3063,1352028.7912503347
3064,0.0
2,8, 1, 8, 0,11, 0.00,60.00,Sunday
2695,-6.087528515177952
1929,18.000011503138766
3063,1397695.785814541
3064,0.0
2,8, 1, 8, 0,12, 0.00,60.00,Sunday
2695,-6.090617414649067
1929,18.000000147671167
3063,1437179.935307072
3064,0.0
2,8, 1, 8, 0,13, 0.00,60.00,Sunday
2695,-6.093377804523897
1929,18.00000392963641
3063,1466273.07307009
3064,0.0
2,8, 1, 8, 0,14, 0.00,60.00,Sunday
2695,-6.0956535671295148
1929,18.000000955356943
3063,1490021.7551204903
3064,0.0
2,8, 1, 8, 0,15, 0.00,60.00,Sunday
2695,-6.0968362037341239
1929,18.000000108556905
3063,1502976.40826291
3064,0.0
2,8, 1, 8, 0,16, 0.00,60.00,Sunday
2695,-6.09635360105198
1929,18.000000097936476
3063,1498988.9381024815
3064,0.0
2,8, 1, 8, 0,17, 0.00,60.00,Sunday
2695,-6.093938117016443
1929,18.000000089748189
3063,1473975.240221963
3064,0.0
2,8, 1, 8, 0,18, 0.00,60.00,Sunday
2695,-6.089910480040596
1929,18.00000008577145
3063,1434070.0303177937
3064,0.0
2,8, 1, 8, 0,19, 0.00,60.00,Sunday
2695,-6.590475012041189
1929,18.000000086707805
3063,1379154.6079486972
3064,0.0
2,8, 1, 8, 0,20, 0.00,60.00,Sunday
2695,-6.584328670770578
1929,18.000000088937957
3063,1325110.200695211
3064,0.0
2,8, 1, 8, 0,21, 0.00,60.00,Sunday
2695,-6.579131358257342
1929,18.000000090323615
3063,1290460.5261647977
3064,0.0
2,8, 1, 8, 0,22, 0.00,60.00,Sunday
2695,-6.574760928043779
1929,18.000000089551646
3063,1277763.654697472
3064,0.0
2,8, 1, 8, 0,23, 0.00,60.00,Sunday
2695,-6.570931873765372
1929,18.00000009171264
3063,1265994.3096462293
3064,0.0
2,8, 1, 8, 0,24, 0.00,60.00,Sunday
2695,-6.568444388728795
1929,18.000000102369467
3063,1253084.1097777447
3064,0.0
2,9, 1, 9, 0, 1, 0.00,60.00,Monday
2695,-6.568037499700924
1929,18.000002601466947
3063,1244547.8294933364
3064,0.0
2,9, 1, 9, 0, 2, 0.00,60.00,Monday
2695,-6.569254250789495
1929,18.000019707386483
3063,1249245.240628163
3064,0.0
2,9, 1, 9, 0, 3, 0.00,60.00,Monday
2695,-6.571309051822271
1929,18.000026369029447
3063,1267508.3281980507
3064,0.0
2,9, 1, 9, 0, 4, 0.00,60.00,Monday
2695,-6.573965017916606
1929,18.00001984335574
3063,1295003.366147244
3064,0.0
2,9, 1, 9, 0, 5, 0.00,60.00,Monday
2695,-6.576846145771821
1929,18.00000909415261