Program Version,EnergyPlus, Version 8.7.0-78a111df4a, YMD=2019.06.21 03:08
1,5,Environment Title[],Latitude[deg],Longitude[deg],Time Zone[],Elevation[m]
2,6,Day of Simulation[],Month[],Day of Month[],DST Indicator[1=yes 0=no],Hour[],StartMinute[],EndMinute[],DayType
3,3,Cumulative Day of Simulation[],Month[],Day of Month[],DST Indicator[1=yes 0=no],DayType  ! When Daily Report Variables Requested
4,2,Cumulative Days of Simulation[],Month[]  ! When Monthly Report Variables Requested
5,1,Cumulative Days of Simulation[] ! When Run Period Report Variables Requested
1929,1,THERMAL ZONE: SPACE 201,Zone Air Temperature [C] !Hourly
2695,1,THERMAL ZONE: SPACE 201 PEOPLE,Zone Thermal Comfort Fanger Model PMV [] !Hourly
3063,1,THERMAL ZONE: SPACE 305 PTHP,Zone Packaged Terminal Heat Pump Total Heating Energy [J] !Hourly
3064,1,THERMAL ZONE: SPACE 305 PTHP,Zone Packaged Terminal Heat Pump Total Cooling Energy [J] !Hourly
End of Data Dictionary
1,ANN HTG 99.6% CONDNS DB,  29.58, 106.47,   8.00, 259.10
2,1, 1,21, 0, 1, 0.00,60.00,WinterDesignDay
2695,-6.493806139278889
1929,18.000065871111905
3063,4653959.836195207
3064,0.0
2,1, 1,21, 0, 2, 0.00,60.00,WinterDesignDay
2695,-6.497719143138863
1929,18.00004979601447
3063,4673051.551131947
3064,0.0
2,1, 1,21, 0, 3, 0.00,60.00,WinterDesignDay
2695,-6.500980817482383
1929,18.000035765307286
3063,4692914.301217027
3064,0.0
2,1, 1,21, 0, 4, 0.00,60.00,WinterDesignDay
2695,-6.50383904665629
1929,18.00003032118065
3063,4710755.594448772
3064,0.0
2,1, 1,21, 0, 5, 0.00,60.00,WinterDesignDay
2695,-6.506553167103811
1929,18.000023906718675
3063,4731078.459631362
3064,0.0
2,1, 1,21, 0, 6, 0.00,60.00,WinterDesignDay
2695,-6.5088017124857269
1929,17.999995935879526
3063,4761553.141853219
3064,0.0
2,1, 1,21, 0, 7, 0.00,60.00,WinterDesignDay
2695,-5.677417102846872
1929,17.9999275761363
3063,4800792.909618799
3064,0.0
2,1, 1,21, 0, 8, 0.00,60.00,WinterDesignDay
2695,-5.674519235739182
1929,17.999833583136114
3063,5187408.197868356
3064,0.0
2,1, 1,21, 0, 9, 0.00,60.00,WinterDesignDay
2695,-5.31936777790812
1929,18.000098909810153
3063,6312602.310551348
3064,0.0
2,1, 1,21, 0,10, 0.00,60.00,WinterDesignDay
2695,-5.3005444427158
1929,18.000705613784218
3063,7306893.19463416
3064,0.0
2,1, 1,21, 0,11, 0.00,60.00,WinterDesignDay
2695,-5.288652743021127
1929,18.000899606682319
3063,7023689.805872636
3064,0.0
2,1, 1,21, 0,12, 0.00,60.00,WinterDesignDay
2695,-5.280900454248157
1929,18.000926673786556
3063,6837307.5745182749
3064,0.0
2,1, 1,21, 0,13, 0.00,60.00,WinterDesignDay
2695,-5.276667909398106
1929,18.000840821693094
3063,6368499.554898361
3064,0.0
2,1, 1,21, 0,14, 0.00,60.00,WinterDesignDay
2695,-5.2730552243770358
1929,18.00081697679252
3063,6295281.112545303
3064,0.0
2,1, 1,21, 0,15, 0.00,60.00,WinterDesignDay
2695,-5.268418698963143
1929,18.000962290274229
3063,6558161.168292522
3064,0.0
2,1, 1,21, 0,16, 0.00,60.00,WinterDesignDay
2695,-5.266588487399062
1929,18.001089473590203
3063,6545407.373461315
3064,0.0
2,1, 1,21, 0,17, 0.00,60.00,WinterDesignDay
2695,-5.267865414076682
1929,18.001147933393214
3063,6602518.788413138
3064,0.0
2,1, 1,21, 0,18, 0.00,60.00,WinterDesignDay
2695,-5.270230535121635
1929,18.001194448359987
3063,6689303.408115022
3064,0.0
2,1, 1,21, 0,19, 0.00,60.00,WinterDesignDay
2695,-5.615430583138651
1929,18.000683012771689
3063,5224181.987580737
3064,0.0
2,1, 1,21, 0,20, 0.00,60.00,WinterDesignDay
2695,-5.631006658375554
1929,18.00035924894144
3063,5400457.920375157
3064,0.0
2,1, 1,21, 0,21, 0.00,60.00,WinterDesignDay
2695,-5.641326756706447
1929,18.000188902790869
3063,4571009.114707371
3064,0.0
2,1, 1,21, 0,22, 0.00,60.00,WinterDesignDay
2695,-5.649347968135505
1929,18.000115283836079
3063,4614718.901434724
3064,0.0
2,1, 1,21, 0,23, 0.00,60.00,WinterDesignDay
2695,-5.654999347700411
1929,18.00008768095444
3063,4635378.270048815
3064,0.0
2,1, 1,21, 0,24, 0.00,60.00,WinterDesignDay
2695,-5.659591620130658
1929,18.000075256597666
3063,4648968.107067287
3064,0.0
1,ANN CLG 4% CONDNS DB =>MWB,  29.58, 106.47,   8.00, 259.10
2,1, 7,21, 0, 1, 0.00,60.00,SummerDesignDay
2695,-3.1530240342793225
1929,25.9997600785492
3063,0.0
3064,881602.9374080367
2,1, 7,21, 0, 2, 0.00,60.00,SummerDesignDay
2695,-3.1632594645136264
1929,25.999831312360088
3063,0.0
3064,849159.4593604696
2,1, 7,21, 0, 3, 0.00,60.00,SummerDesignDay
2695,-3.1711932656751276
1929,25.99988017046856
3063,0.0
3064,822029.2144426766
2,1, 7,21, 0, 4, 0.00,60.00,SummerDesignDay
2695,-3.177654104043238
1929,25.999910732855765
3063,0.0
3064,798655.3226289256
2,1, 7,21, 0, 5, 0.00,60.00,SummerDesignDay
2695,-3.183239328043689
1929,25.999932212437746
3063,0.0
3064,776438.9540928361
2,1, 7,21, 0, 6, 0.00,60.00,SummerDesignDay
2695,-3.188089219794893
1929,25.99996131910417
3063,0.0
3064,751079.5949610075
2,1, 7,21, 0, 7, 0.00,60.00,SummerDesignDay
2695,-3.891340521134904
1929,25.999996641040967
3063,0.0
3064,720960.0430150863
2,1, 7,21, 0, 8, 0.00,60.00,SummerDesignDay
2695,-3.868384237681496
1929,25.999681526274686
3063,0.0
3064,1125955.9323364646
2,1, 7,21, 0, 9, 0.00,60.00,SummerDesignDay
2695,-3.8102652963937517
1929,25.996906911371498
3063,0.0
3064,3788210.625388142
2,1, 7,21, 0,10, 0.00,60.00,SummerDesignDay
2695,-3.659869734979598
1929,26.580787972282129
3063,0.0
3064,6871448.104042802
2,1, 7,21, 0,11, 0.00,60.00,SummerDesignDay
2695,-3.546881132085684
1929,26.98404098728537
3063,0.0
3064,6974498.295106087
2,1, 7,21, 0,12, 0.00,60.00,SummerDesignDay
2695,-3.4769222389470149
1929,27.28537499000103
3063,0.0
3064,6915042.508208341
2,1, 7,21, 0,13, 0.00,60.00,SummerDesignDay
2695,-3.5137057748309616
1929,26.96315370553076
3063,0.0
3064,6570187.065102004
2,1, 7,21, 0,14, 0.00,60.00,SummerDesignDay
2695,-3.5202114357348734
1929,27.018865285395795
3063,0.0
3064,6331127.907358867
2,1, 7,21, 0,15, 0.00,60.00,SummerDesignDay
2695,-3.4101820237508337
1929,27.628055812849607
3063,0.0
3064,6661795.85472517
2,1, 7,21, 0,16, 0.00,60.00,SummerDesignDay
2695,-3.364679277055768
1929,27.674429247758586
3063,0.0
3064,6921789.335264046
2,1, 7,21, 0,17, 0.00,60.00,SummerDesignDay
2695,-3.380288658949181
1929,27.551656718293385
3063,0.0
3064,7015040.784511112
2,1, 7,21, 0,18, 0.00,60.00,SummerDesignDay
2695,-3.407224526535924
1929,27.377137244757408
3063,0.0
3064,7110110.936435117
2,1, 7,21, 0,19, 0.00,60.00,SummerDesignDay
2695,-3.5810796090272265
1929,26.047452366486046
3063,0.0
3064,4161187.888809855
2,1, 7,21, 0,20, 0.00,60.00,SummerDesignDay
2695,-3.691243028647881
1929,25.997019743013757
3063,0.0
3064,3391586.3170958438
2,1, 7,21, 0,21, 0.00,60.00,SummerDesignDay
2695,-3.7253431130862117
1929,25.998584371914743
3063,0.0
3064,1362199.7740275516
2,1, 7,21, 0,22, 0.00,60.00,SummerDesignDay
2695,-3.7774247973720427
1929,25.99917289035152
3063,0.0
3064,1134477.867155545
2,1, 7,21, 0,23, 0.00,60.00,SummerDesignDay
2695,-3.8087588813288066
1929,25.999475973448964
3063,0.0
3064,1019799.5240654331
2,1, 7,21, 0,24, 0.00,60.00,SummerDesignDay
2695,-3.8292900105743858
1929,25.999660646445038
3063,0.0
3064,949762.215241832
1,RUN PERIOD 1,  29.58, 106.47,   8.00, 259.10
2,1, 1, 1, 0, 1, 0.00,60.00,Holiday
2695,-6.12114005577578
1929,18.000205311776815
3063,1670067.912379318
3064,0.0
2,1, 1, 1, 0, 2, 0.00,60.00,Holiday
2695,-6.124309945183701
1929,18.000078332438386
3063,1697704.7992603686
3064,0.0
2,1, 1, 1, 0, 3, 0.00,60.00,Holiday
2695,-6.125832375540313
1929,18.000054475219828
3063,1702835.06048866
3064,0.0
2,1, 1, 1, 0, 4, 0.00,60.00,Holiday
2695,-6.127546525767751
1929,18.000073940256646
3063,1702892.7934354165
3064,0.0
2,1, 1, 1, 0, 5, 0.00,60.00,Holiday
2695,-6.130635985318411
1929,18.000128740467465
3063,1698792.6453796703
3064,0.0
2,1, 1, 1, 0, 6, 0.00,60.00,Holiday
2695,-6.137419464733192
1929,18.000165303229143
3063,1639998.4825172236
3064,0.0
2,1, 1, 1, 0, 7, 0.00,60.00,Holiday
2695,-6.543874989142378
1929,18.00012401220101
3063,1686430.6786115787
3064,0.0
2,1, 1, 1, 0, 8, 0.00,60.00,Holiday
2695,-6.552887711809848
1929,18.000079598112408
3063,1748270.9073511987
3064,0.0
2,1, 1, 1, 0, 9, 0.00,60.00,Holiday
2695,-6.058073725301548
1929,18.000039803735203
3063,1808677.1900542346
3064,0.0
2,1, 1, 1, 0,10, 0.00,60.00,Holiday
2695,-6.060768733076255
1929,18.00000874973237
3063,1873271.3154704094
3064,0.0
2,1, 1, 1, 0,11, 0.00,60.00,Holiday
2695,-6.0615711735254689
1929,18.000005547272797
3063,1916759.1095744237
3064,0.0
2,1, 1, 1, 0,12, 0.00,60.00,Holiday
2695,-6.062127532576292
1929,18.000002290629376
3063,1939231.3296126845
3064,0.0
2,1, 1, 1, 0,13, 0.00,60.00,Holiday
2695,-6.062802017512156
1929,18.0000006849454
3063,1982120.2334761169
3064,0.0
2,1, 1, 1, 0,14, 0.00,60.00,Holiday
2695,-6.0614939051270169
1929,18.000000567728315
3063,2022427.517640128
3064,0.0
2,1, 1, 1, 0,15, 0.00,60.00,Holiday
2695,-6.057882414138292
1929,18.000000457861078
3063,2047071.4982134349
3064,0.0
2,1, 1, 1, 0,16, 0.00,60.00,Holiday
2695,-6.051820637826278
1929,18.000000357218867
3063,2058293.6527551769
3064,0.0
2,1, 1, 1, 0,17, 0.00,60.00,Holiday
2695,-6.043225657659764
1929,18.000000279503124
3063,2053542.9670736269
3064,0.0
2,1, 1, 1, 0,18, 0.00,60.00,Holiday
2695,-6.0325072048175178
1929,18.000000231213887
3063,2026937.7791951569
3064,0.0
2,1, 1, 1, 0,19, 0.00,60.00,Holiday
2695,-6.5150835330975929
1929,18.000000205517176
3063,1976219.5688579335
3064,0.0
2,1, 1, 1, 0,20, 0.00,60.00,Holiday
2695,-6.5026053194691368
1929,18.000000209750433
3063,1885513.9264778547
3064,0.0
2,1, 1, 1, 0,21, 0.00,60.00,Holiday
2695,-6.495694532401449
1929,18.000055562828046
3063,1771504.107169561
3064,0.0
2,1, 1, 1, 0,22, 0.00,60.00,Holiday
2695,-6.496177006103495
1929,18.00029146172731
3063,1685061.0706260636
3064,0.0
2,1, 1, 1, 0,23, 0.00,60.00,Holiday
2695,-6.501829348241429
1929,18.000384897983733
3063,1645287.2786941124
3064,0.0
2,1, 1, 1, 0,24, 0.00,60.00,Holiday
2695,-6.509445789190804
1929,18.000375306792099
3063,1634798.1235980429
3064,0.0
2,2, 1, 2, 0, 1, 0.00,60.00,Holiday
2695,-6.516562395117133
1929,18.000341007995205
3063,1634518.5233362416
3064,0.0
2,2, 1, 2, 0, 2, 0.00,60.00,Holiday
2695,-6.52365923791536
1929,18.00027799253697
3063,1648292.6106432686
3064,0.0
2,2, 1, 2, 0, 3, 0.00,60.00,Holiday
2695,-6.53005495367752
1929,18.000200555644196
3063,1671421.478029525
3064,0.0
2,2, 1, 2, 0, 4, 0.00,60.00,Holiday
2695,-6.5350018940459659
1929,18.00014080742564
3063,1694400.9208784193
3064,0.0
2,2, 1, 2, 0, 5, 0.00,60.00,Holiday
2695,-6.5389793628721419
1929,18.000101176833359
3063,1717437.2453150799
3064,0.0
2,2, 1, 2, 0, 6, 0.00,60.00,Holiday
2695,-6.542413742932115
1929,18.00007505671387
3063,1742361.047446569
3064,0.0
2,2, 1, 2, 0, 7, 0.00,60.00,Holiday
2695,-6.6460241652669949
1929,18.000064635046397
3063,1767186.1728042225
3064,0.0
2,2, 1, 2, 0, 8, 0.00,60.00,Holiday
2695,-6.6492089669166669
1929,18.00004978520217
3063,1797374.6540566334
3064,0.0
2,2, 1, 2, 0, 9, 0.00,60.00,Holiday
2695,-6.134018875213703
1929,18.000004355179333
3063,1848051.9835504119
3064,0.0
2,2, 1, 2, 0,10, 0.00,60.00,Holiday
2695,-6.1340731507132839
1929,18.000000544978549
3063,1902991.0837369774
3064,0.0
2,2, 1, 2, 0,11, 0.00,60.00,Holiday
2695,-6.132550229792343
1929,18.00000048493273
3063,1928283.5406030284
3064,0.0
2,2, 1, 2, 0,12, 0.00,60.00,Holiday
2695,-6.131435245714961
1929,18.00000044167008
3063,1948275.1302635079
3064,0.0
2,2, 1, 2, 0,13, 0.00,60.00,Holiday
2695,-6.130434729599461
1929,18.000000407421405
3063,1966322.8186735549
3064,0.0
2,2, 1, 2, 0,14, 0.00,60.00,Holiday
2695,-6.129260234014378
1929,18.00000036954361
3063,1980316.3757994408
3064,0.0
2,2, 1, 2, 0,15, 0.00,60.00,Holiday
2695,-6.1269657939627939
1929,18.000000321122415
3063,1995958.934790899
3064,0.0
2,2, 1, 2, 0,16, 0.00,60.00,Holiday
2695,-6.122367898343995
1929,18.000000276694768
3063,1998818.183242632
3064,0.0
2,2, 1, 2, 0,17, 0.00,60.00,Holiday
2695,-6.115976612496721
1929,18.00000026334276
3063,1951609.6802431192
3064,0.0
2,2, 1, 2, 0,18, 0.00,60.00,Holiday
2695,-6.110771359008502
1929,18.000000279665554
3063,1875173.7233365402
3064,0.0
2,2, 1, 2, 0,19, 0.00,60.00,Holiday
2695,-6.6205833574258519
1929,18.00002403101097
3063,1805964.2736782914
3064,0.0
2,2, 1, 2, 0,20, 0.00,60.00,Holiday
2695,-6.618970140329556
1929,18.000094606959828
3063,1748428.0694499408
3064,0.0
2,2, 1, 2, 0,21, 0.00,60.00,Holiday
2695,-6.618869021710708
1929,18.00009165362464
3063,1716850.767027436
3064,0.0
2,2, 1, 2, 0,22, 0.00,60.00,Holiday
2695,-6.618567259604831
1929,18.000020823823957
3063,1712309.7847166316
3064,0.0
2,2, 1, 2, 0,23, 0.00,60.00,Holiday
2695,-6.617113249036329
1929,18.000000387765004
3063,1705273.1042492314
3064,0.0
2,2, 1, 2, 0,24, 0.00,60.00,Holiday
2695,-6.616196946866869
1929,18.000042830810118
3063,1681110.2109648414
3064,0.0
2,3, 1, 3, 0, 1, 0.00,60.00,Holiday
2695,-6.618050926217369
1929,18.000114201765773
3063,1664050.09221429
3064,0.0
2,3, 1, 3, 0, 2, 0.00,60.00,Holiday
2695,-6.622270712414195
1929,18.000206697084264
3063,1644728.3058831788
3064,0.0
2,3, 1, 3, 0, 3, 0.00,60.00,Holiday
2695,-6.629969340223696
1929,18.000246941280897
3063,1598893.9574687775
3064,0.0
2,3, 1, 3, 0, 4, 0.00,60.00,Holiday
2695,-6.64316608339798
1929,18.000159139214998
3063,1638358.4142874357
3064,0.0
2,3, 1, 3, 0, 5, 0.00,60.00,Holiday
2695,-6.6526561601630809
1929,18.000082031580516
3063,1714682.283864576
3064,0.0
2,3, 1, 3, 0, 6, 0.00,60.00,Holiday
2695,-6.658138694052329
1929,18.0000402046521
3063,1767038.6906155418
3064,0.0
2,3, 1, 3, 0, 7, 0.00,60.00,Holiday
2695,-6.563362597799625
1929,18.000007455706585
3063,1836452.0442429665
3064,0.0
2,3, 1, 3, 0, 8, 0.00,60.00,Holiday
2695,-6.563700190801462
1929,18.00000362084872
3063,1862280.4290290159
3064,0.0
2,3, 1, 3, 0, 9, 0.00,60.00,Holiday
2695,-6.062953769476035
1929,18.000000722580386
3063,1894796.3567169407
3064,0.0
2,3, 1, 3, 0,10, 0.00,60.00,Holiday
2695,-6.063628722410679
1929,18.00000067668643
3063,1929744.414530196
3064,0.0
2,3, 1, 3, 0,11, 0.00,60.00,Holiday
2695,-6.064507910175526
1929,18.00000064193031
3063,1965792.1896150022
3064,0.0
2,3, 1, 3, 0,12, 0.00,60.00,Holiday
2695,-6.065341846378655
1929,18.00000060985543
3063,1998832.8299539155
3064,0.0
2,3, 1, 3, 0,13, 0.00,60.00,Holiday
2695,-6.066440187308772
1929,18.000000587387054
3063,2030237.8286632193
3064,0.0
2,3, 1, 3, 0,14, 0.00,60.00,Holiday
2695,-6.067568142553815
1929,18.00000057092905
3063,2061629.8969404544
3064,0.0
2,3, 1, 3, 0,15, 0.00,60.00,Holiday
2695,-6.068540168754475
1929,18.000000561400385
3063,2092477.3862128165
3064,0.0
2,3, 1, 3, 0,16, 0.00,60.00,Holiday
2695,-6.0691174842006359
1929,18.00000055637184
3063,2119957.7426032919
3064,0.0
2,3, 1, 3, 0,17, 0.00,60.00,Holiday
2695,-6.069190068682809
1929,18.000000550452623
3063,2149199.0000596845
3064,0.0
2,3, 1, 3, 0,18, 0.00,60.00,Holiday
2695,-6.068406358413779
1929,18.000000550650417
3063,2170864.4692511225
3064,0.0
2,3, 1, 3, 0,19, 0.00,60.00,Holiday
2695,-6.570677710287004
1929,18.00000054827925
3063,2188596.7200540758
3064,0.0
2,3, 1, 3, 0,20, 0.00,60.00,Holiday
2695,-6.5684918583428699
1929,18.000000553859779
3063,2202343.485397308
3064,0.0
2,3, 1, 3, 0,21, 0.00,60.00,Holiday
2695,-6.565949724739283
1929,18.000000562413577
3063,2209400.193363001
3064,0.0
2,3, 1, 3, 0,22, 0.00,60.00,Holiday
2695,-6.563601925208752
1929,18.000000572868875
3063,2211087.9624002624
3064,0.0
2,3, 1, 3, 0,23, 0.00,60.00,Holiday
2695,-6.5618925072683729
1929,18.000000588976666
3063,2213837.5935246825
3064,0.0
2,3, 1, 3, 0,24, 0.00,60.00,Holiday
2695,-6.560869098756297
1929,18.00000060556395
3063,2212381.7000481968
3064,0.0
2,4, 1, 4, 0, 1, 0.00,60.00,Wednesday
2695,-6.560852265279639
1929,18.00000062273709
3063,2219365.155785259
3064,0.0
2,4, 1, 4, 0, 2, 0.00,60.00,Wednesday
2695,-6.561107442923924
1929,18.000002067320719
3063,2224355.8808115909
3064,0.0
2,4, 1, 4, 0, 3, 0.00,60.00,Wednesday
2695,-6.5618872925027669
1929,18.000001511269468
3063,2234634.570337248
3064,0.0
2,4, 1, 4, 0, 4, 0.00,60.00,Wednesday
2695,-6.5625210847675359
1929,18.000000677710763
3063,2248565.3687942617
3064,0.0
2,4, 1, 4, 0, 5, 0.00,60.00,Wednesday
2695,-6.562782231698116
1929,18.00000068828731
3063,2265071.6545537796
3064,0.0
2,4, 1, 4, 0, 6, 0.00,60.00,Wednesday
2695,-6.56248345008688
1929,18.00000070153428
3063,2276271.6320244676
3064,0.0
2,4, 1, 4, 0, 7, 0.00,60.00,Wednesday
2695,-6.691823462841739
1929,18.000000712701504
3063,2282205.0565828166
3064,0.0
2,4, 1, 4, 0, 8, 0.00,60.00,Wednesday
2695,-6.690214719794247
1929,18.000025544737786
3063,2279039.8402477849
3064,0.0
2,4, 1, 4, 0, 9, 0.00,60.00,Wednesday
2695,-6.15333445441951
1929,18.00020653910276
3063,2188825.1215538454
3064,0.0
2,4, 1, 4, 0,10, 0.00,60.00,Wednesday
2695,-6.135815222904093
1929,18.000422042566354
3063,2034905.016991118
3064,0.0
2,4, 1, 4, 0,11, 0.00,60.00,Wednesday
2695,-6.129779829140747
1929,18.00051265223643
3063,1947942.1892301792
3064,0.0
2,4, 1, 4, 0,12, 0.00,60.00,Wednesday
2695,-6.130684745085749
1929,18.000491871919065
3063,1888421.9389176933
3064,0.0
2,4, 1, 4, 0,13, 0.00,60.00,Wednesday
2695,-6.132458915445523
1929,18.000477702205765
3063,1853700.80666757
3064,0.0
2,4, 1, 4, 0,14, 0.00,60.00,Wednesday
2695,-6.133021393827248
1929,18.000413432952198
3063,1768918.3783836419
3064,0.0
2,4, 1, 4, 0,15, 0.00,60.00,Wednesday
2695,-6.1275348986579269
1929,18.00029473161997
3063,1564003.3009374194
3064,0.0
2,4, 1, 4, 0,16, 0.00,60.00,Wednesday
2695,-6.116985112471831
1929,18.000226669140625
3063,1396827.8459899584
3064,0.0
2,4, 1, 4, 0,17, 0.00,60.00,Wednesday
2695,-6.106250218975181
1929,18.000225497197474
3063,1310212.7042408477
3064,0.0
2,4, 1, 4, 0,18, 0.00,60.00,Wednesday
2695,-6.100302269166549
1929,18.00024967681889
3063,1313473.3171518406
3064,0.0
2,4, 1, 4, 0,19, 0.00,60.00,Wednesday
2695,-6.6201101526593
1929,18.000404589179039
3063,1785238.1234197817
3064,0.0
2,4, 1, 4, 0,20, 0.00,60.00,Wednesday
2695,-6.632216352045863
1929,18.000275818378375
3063,1846473.745084869
3064,0.0
2,4, 1, 4, 0,21, 0.00,60.00,Wednesday
2695,-6.640901994475688
1929,18.00025569714499
3063,1968439.3500938263
3064,0.0
2,4, 1, 4, 0,22, 0.00,60.00,Wednesday
2695,-6.64763699525917
1929,18.00019251785034
3063,1984567.5858561777
3064,0.0
2,4, 1, 4, 0,23, 0.00,60.00,Wednesday
2695,-6.652689278313949
1929,18.000147644260477
3063,1992652.7774142842
3064,0.0
2,4, 1, 4, 0,24, 0.00,60.00,Wednesday
2695,-6.656984465470757
1929,18.000131138916879
3063,1995687.9968018968
3064,0.0
2,5, 1, 5, 0, 1, 0.00,60.00,Thursday
2695,-6.661642691938301
1929,18.000118445724764
3063,2002389.5171144864
3064,0.0
2,5, 1, 5, 0, 2, 0.00,60.00,Thursday
2695,-6.665942220706643
1929,18.000112543231638
3063,2010191.814336723
3064,0.0
2,5, 1, 5, 0, 3, 0.00,60.00,Thursday
2695,-6.6699428163645939
1929,18.00012707694773
3063,2014631.6616412677
3064,0.0
2,5, 1, 5, 0, 4, 0.00,60.00,Thursday
2695,-6.674538791623576
1929,18.00015852377648
3063,2016525.815476764
3064,0.0
2,5, 1, 5, 0, 5, 0.00,60.00,Thursday
2695,-6.679881136053193
1929,18.00016375964661
3063,2027924.9241335295
3064,0.0
2,5, 1, 5, 0, 6, 0.00,60.00,Thursday
2695,-6.6851538631129598
1929,18.000150883174837
3063,2043609.9864568548
3064,0.0
2,5, 1, 5, 0, 7, 0.00,60.00,Thursday
2695,-6.701911839769327
1929,18.00016311793473
3063,2050169.6466697809
3064,0.0
2,5, 1, 5, 0, 8, 0.00,60.00,Thursday
2695,-6.705985341390527
1929,18.000155619088195
3063,2062825.5559457825
3064,0.0
2,5, 1, 5, 0, 9, 0.00,60.00,Thursday
2695,-6.170863110725172
1929,18.00022623980738
3063,1996433.9631443385
3064,0.0
2,5, 1, 5, 0,10, 0.00,60.00,Thursday
2695,-6.1534415369023629
1929,18.000366239641335
3063,1855257.0218066648
3064,0.0
2,5, 1, 5, 0,11, 0.00,60.00,Thursday
2695,-6.143749740276198
1929,18.000423327938827
3063,1763176.241899305
3064,0.0
2,5, 1, 5, 0,12, 0.00,60.00,Thursday
2695,-6.139884344984391
1929,18.00041655965603
3063,1701094.558733714
3064,0.0
2,5, 1, 5, 0,13, 0.00,60.00,Thursday
2695,-6.137925784577561
1929,18.000390804692214
3063,1681428.111792219
3064,0.0
2,5, 1, 5, 0,14, 0.00,60.00,Thursday
2695,-6.133934015307019
1929,18.00036482810693
3063,1618541.7337463557
3064,0.0
2,5, 1, 5, 0,15, 0.00,60.00,Thursday
2695,-6.128328296333571
1929,18.000321021862978
3063,1482734.198656508
3064,0.0
2,5, 1, 5, 0,16, 0.00,60.00,Thursday
2695,-6.123113004099381
1929,18.000295913620687
3063,1389279.0387471675
3064,0.0
2,5, 1, 5, 0,17, 0.00,60.00,Thursday
2695,-6.118461525813626
1929,18.000263377959045
3063,1296232.9702044556
3064,0.0
2,5, 1, 5, 0,18, 0.00,60.00,Thursday
2695,-6.114011919257808
1929,18.000238079691049
3063,1211413.6272337745
3064,0.0
2,5, 1, 5, 0,19, 0.00,60.00,Thursday
2695,-6.63650227553826
1929,18.000376571180586
3063,1611730.3866014924
3064,0.0
2,5, 1, 5, 0,20, 0.00,60.00,Thursday
2695,-6.649152208304184
1929,18.00025940012178
3063,1649531.9817353429
3064,0.0
2,5, 1, 5, 0,21, 0.00,60.00,Thursday
2695,-6.658491613584161
1929,18.000268219757243
3063,1819488.950239551
3064,0.0
2,5, 1, 5, 0,22, 0.00,60.00,Thursday
2695,-6.666088119468299
1929,18.00023484660578
3063,1834973.5169193005
3064,0.0
2,5, 1, 5, 0,23, 0.00,60.00,Thursday
2695,-6.672606589033095
1929,18.000186641793545
3063,1851783.3512132895
3064,0.0
2,5, 1, 5, 0,24, 0.00,60.00,Thursday
2695,-6.67766347184027
1929,18.00009237210568
3063,1881587.770377277
3064,0.0
2,6, 1, 6, 0, 1, 0.00,60.00,Friday
2695,-6.680059559764522
1929,18.000037767872887
3063,1898212.9979328418
3064,0.0
2,6, 1, 6, 0, 2, 0.00,60.00,Friday
2695,-6.681580493353304
1929,18.000004628416428
3063,1916587.6837590829
3064,0.0
2,6, 1, 6, 0, 3, 0.00,60.00,Friday
2695,-6.682046235033496
1929,18.00000050497783
3063,1936890.8114562354
3064,0.0
2,6, 1, 6, 0, 4, 0.00,60.00,Friday
2695,-6.681558228328065
1929,18.000000522623908
3063,1952998.9419760644
3064,0.0
2,6, 1, 6, 0, 5, 0.00,60.00,Friday
2695,-6.680559702842241
1929,18.000000534046288
3063,1966088.3488647207
3064,0.0
2,6, 1, 6, 0, 6, 0.00,60.00,Friday
2695,-6.679440561865004
1929,18.000000540542
3063,1978871.6103397564
3064,0.0
2,6, 1, 6, 0, 7, 0.00,60.00,Friday
2695,-6.675681323329923
1929,18.000000547139256
3063,1980488.675782322
3064,0.0
2,6, 1, 6, 0, 8, 0.00,60.00,Friday
2695,-6.674283064388153
1929,18.000019319173498
3063,1975300.6855313406
3064,0.0
2,6, 1, 6, 0, 9, 0.00,60.00,Friday
2695,-6.140720068257799
1929,18.000167037849523
3063,1855430.4646696724
3064,0.0
2,6, 1, 6, 0,10, 0.00,60.00,Friday
2695,-6.121463205761593
1929,18.00029728862373
3063,1576860.9483978474
3064,0.0
2,6, 1, 6, 0,11, 0.00,60.00,Friday
2695,-6.1125874400576809
1929,18.000306829908426
3063,1386223.98773681
3064,0.0
2,6, 1, 6, 0,12, 0.00,60.00,Friday
2695,-6.110328589254396
1929,18.000241037013976
3063,1220073.380052703
3064,0.0
2,6, 1, 6, 0,13, 0.00,60.00,Friday
2695,-6.1093529634426348
1929,18.000214884729883
3063,1144401.750985155
3064,0.0
2,6, 1, 6, 0,14, 0.00,60.00,Friday
2695,-6.106985915930967
1929,18.00016917765461
3063,954583.4890178539
3064,0.0
2,6, 1, 6, 0,15, 0.00,60.00,Friday
2695,-6.0818580112425819
1929,18.134583280273053
3063,520163.09317771487
3064,0.0
2,6, 1, 6, 0,16, 0.00,60.00,Friday
2695,-6.020953625231733
1929,18.38646006675772
3063,215353.89942662064
3064,0.0
2,6, 1, 6, 0,17, 0.00,60.00,Friday
2695,-5.973279726910909
1929,18.512225722470466
3063,47907.14791729875
3064,0.0
2,6, 1, 6, 0,18, 0.00,60.00,Friday
2695,-5.9578595239737999
1929,18.49922525301942
3063,19991.774160464887
3064,0.0
2,6, 1, 6, 0,19, 0.00,60.00,Friday
2695,-6.52334872740996
1929,18.0175874092013
3063,938970.6506658869
3064,0.0
2,6, 1, 6, 0,20, 0.00,60.00,Friday
2695,-6.553617653024717
1929,18.000182880219673
3063,929601.2339142074
3064,0.0
2,6, 1, 6, 0,21, 0.00,60.00,Friday
2695,-6.5600481561782
1929,18.00025627165772
3063,1197296.349763932
3064,0.0
2,6, 1, 6, 0,22, 0.00,60.00,Friday
2695,-6.563547475700385
1929,18.000215600457954
3063,1160363.372851286
3064,0.0
2,6, 1, 6, 0,23, 0.00,60.00,Friday
2695,-6.566669962053463
1929,18.000202763291399
3063,1129480.2585333524
3064,0.0
2,6, 1, 6, 0,24, 0.00,60.00,Friday
2695,-6.570406672723543
1929,18.000201962168214
3063,1109746.3850809439
3064,0.0
2,7, 1, 7, 0, 1, 0.00,60.00,Saturday
2695,-6.574982578296059
1929,18.000190435567743
3063,1104500.1792717344
3064,0.0
2,7, 1, 7, 0, 2, 0.00,60.00,Saturday
2695,-6.580000005422026
1929,18.00019391905171
3063,1105477.7929641789
3064,0.0
2,7, 1, 7, 0, 3, 0.00,60.00,Saturday
2695,-6.585832589673921
1929,18.000211768995134
3063,1110805.7756624039
3064,0.0
2,7, 1, 7, 0, 4, 0.00,60.00,Saturday
2695,-6.592883504522486
1929,18.00023597449363
3063,1120030.7860567659
3064,0.0
2,7, 1, 7, 0, 5, 0.00,60.00,Saturday
2695,-6.601447807966207
1929,18.000266837489339
3063,1110650.9857209963
3064,0.0
2,7, 1, 7, 0, 6, 0.00,60.00,Saturday
2695,-6.617100342809784
1929,18.00023183862984
3063,1065973.7096057533
3064,0.0
2,7, 1, 7, 0, 7, 0.00,60.00,Saturday
2695,-6.427989517304183
1929,18.000153909031935
3063,1146055.9337362578
3064,0.0
2,7, 1, 7, 0, 8, 0.00,60.00,Saturday
2695,-6.441167215113183
1929,18.000091850898845
3063,1228547.5531576533
3064,0.0
2,7, 1, 7, 0, 9, 0.00,60.00,Saturday
2695,-5.969775965790223
1929,18.00005632192146
3063,1296746.0527248996
3064,0.0
2,7, 1, 7, 0,10, 0.00,60.00,Saturday
2695,-5.975459673933127
1929,18.000044855652147
3063,1350691.6572344427
3064,0.0
2,7, 1, 7, 0,11, 0.00,60.00,Saturday
2695,-5.9804667053919
1929,18.000033280437817
3063,1410147.3494754425
3064,0.0
2,7, 1, 7, 0,12, 0.00,60.00,Saturday
2695,-5.984562777090751
1929,18.00002291978312
3063,1463728.1947538539
3064,0.0
2,7, 1, 7, 0,13, 0.00,60.00,Saturday
2695,-5.987473178820008
1929,18.000001545686755
3063,1509363.9685891516
3064,0.0
2,7, 1, 7, 0,14, 0.00,60.00,Saturday
2695,-5.988206654889718
1929,18.000000269997533
3063,1542622.4207832588
3064,0.0
2,7, 1, 7, 0,15, 0.00,60.00,Saturday
2695,-5.985708558944669
1929,18.000000177049228
3063,1557879.8189330784
3064,0.0
2,7, 1, 7, 0,16, 0.00,60.00,Saturday
2695,-5.979000269556344
1929,18.000000120945339
3063,1531892.1862215489
3064,0.0
2,7, 1, 7, 0,17, 0.00,60.00,Saturday
2695,-5.969434968743822
1929,18.000000105824055
3063,1434752.1418769519
3064,0.0
2,7, 1, 7, 0,18, 0.00,60.00,Saturday
2695,-5.960648130479957
1929,18.000000107718586
3063,1311754.6111291652
3064,0.0
2,7, 1, 7, 0,19, 0.00,60.00,Saturday
2695,-6.430476974423111
1929,18.000000112807489
3063,1194349.1894144349
3064,0.0
2,7, 1, 7, 0,20, 0.00,60.00,Saturday
2695,-6.422039348858086
1929,18.000000119927127
3063,1091491.2431229149
3064,0.0
2,7, 1, 7, 0,21, 0.00,60.00,Saturday
2695,-6.4145910260295369
1929,18.00000012924975
3063,1006538.4976841125
3064,0.0
2,7, 1, 7, 0,22, 0.00,60.00,Saturday
2695,-6.408654064412004
1929,18.00000014047504
3063,942188.5377156487
3064,0.0
2,7, 1, 7, 0,23, 0.00,60.00,Saturday
2695,-6.404367373080961
1929,18.00000103071683
3063,897458.165121328
3064,0.0
2,7, 1, 7, 0,24, 0.00,60.00,Saturday
2695,-6.401907890566292
1929,18.000027765079599
3063,869881.8367492581
3064,0.0
2,8, 1, 8, 0, 1, 0.00,60.00,Sunday
2695,-6.401054457429616
1929,18.000032924908145
3063,862211.7974495697
3064,0.0
2,8, 1, 8, 0, 2, 0.00,60.00,Sunday
2695,-6.400894597943719
1929,18.000028366681879
3063,867497.38904954
3064,0.0
2,8, 1, 8, 0, 3, 0.00,60.00,Sunday
2695,-6.401366968915519
1929,18.000031750666996
3063,880874.8240047362
3064,0.0
2,8, 1, 8, 0, 4, 0.00,60.00,Sunday
2695,-6.402521246063735
1929,18.00003571321719
3063,902031.5328083688
3064,0.0
2,8, 1, 8, 0, 5, 0.00,60.00,Sunday
2695,-6.404236246650082
1929,18.0000301623953
3063,931553.20431507
3064,0.0
2,8, 1, 8, 0, 6, 0.00,60.00,Sunday
2695,-6.406249887511513
1929,18.000035928083635
3063,963278.3691142922
3064,0.0
2,8, 1, 8, 0, 7, 0.00,60.00,Sunday
2695,-6.619280158778118
1929,18.000046761332205
3063,997381.9353208502
3064,0.0
2,8, 1, 8, 0, 8, 0.00,60.00,Sunday
2695,-6.622474988747869
1929,18.000051934803645
3063,1035435.719629807
3064,0.0
2,8, 1, 8, 0, 9, 0.00,60.00,Sunday
2695,-6.113496167088681
1929,18.000047139836786
3063,1078239.5659265323
3064,0.0
2,8, 1, 8, 0,10, 0.00,60.00,Sunday
2695,-6.116335796839039
1929,18.000035098113036
3063,1124445.393049591
3064,0.0
2,8, 1, 8, 0,11, 0.00,60.00,Sunday
2695,-6.118916727001498
1929,18.000008140683084
3063,1175341.8678153393
3064,0.0
2,8, 1, 8, 0,12, 0.00,60.00,Sunday
2695,-6.120900861733603
1929,18.000000235037928
3063,1221259.6880339557
3064,0.0
2,8, 1, 8, 0,13, 0.00,60.00,Sunday
2695,-6.122660929472147
1929,18.000001179613695
3063,1257091.2979630302
3064,0.0
2,8, 1, 8, 0,14, 0.00,60.00,Sunday
2695,-6.1241594055517469
1929,18.000000204415163
3063,1285962.7444154393
3064,0.0
2,8, 1, 8, 0,15, 0.00,60.00,Sunday
2695,-6.124794248470004
1929,18.000000165682093
3063,1302315.128840577
3064,0.0
2,8, 1, 8, 0,16, 0.00,60.00,Sunday
2695,-6.124101808004891
1929,18.00000014976563
3063,1299149.966741
3064,0.0
2,8, 1, 8, 0,17, 0.00,60.00,Sunday
2695,-6.121864553434719
1929,18.000000139107887
3063,1271862.2926430745
3064,0.0
2,8, 1, 8, 0,18, 0.00,60.00,Sunday
2695,-6.1183758044285379
1929,18.000000136101119
3063,1226205.0624728723
3064,0.0
2,8, 1, 8, 0,19, 0.00,60.00,Sunday
2695,-6.626979669773033
1929,18.000000141844827
3063,1163752.1815857015
3064,0.0
2,8, 1, 8, 0,20, 0.00,60.00,Sunday
2695,-6.622125332203493
1929,18.0000001504192
3063,1100857.4336084359
3064,0.0
2,8, 1, 8, 0,21, 0.00,60.00,Sunday
2695,-6.618102478545455
1929,18.000000157365947
3063,1056770.1217144987
3064,0.0
2,8, 1, 8, 0,22, 0.00,60.00,Sunday
2695,-6.614347726153632
1929,18.000000159384859
3063,1035751.7846593233
3064,0.0
2,8, 1, 8, 0,23, 0.00,60.00,Sunday
2695,-6.610437854103502
1929,18.000000164896446
3063,1021061.7001683557
3064,0.0
2,8, 1, 8, 0,24, 0.00,60.00,Sunday
2695,-6.607622430497492
1929,18.00000018375304
3063,1009680.5508364246
3064,0.0
2,9, 1, 9, 0, 1, 0.00,60.00,Monday
2695,-6.6069166335936428
1929,18.000011606462615
3063,1004759.432061873
3064,0.0
2,9, 1, 9, 0, 2, 0.00,60.00,Monday
2695,-6.607935142562769
1929,18.000040559587278
3063,1012541.1131891493
3064,0.0
2,9, 1, 9, 0, 3, 0.00,60.00,Monday
2695,-6.60969460182017
1929,18.000043994311868
3063,1033321.2359745168
3064,0.0
2,9, 1, 9, 0, 4, 0.00,60.00,Monday
2695,-6.611833821213389
1929,18.0000307856173
3063,1063643.2048778586
3064,0.0
2,9, 1, 9, 0, 5, 0.00,60.00,Monday
2695,-6.6139470612318649
1929,18.00001398643084