Program Version,EnergyPlus, Version 8.7.0-78a111df4a, YMD=2019.06.21 03:10
1,5,Environment Title[],Latitude[deg],Longitude[deg],Time Zone[],Elevation[m]
2,6,Day of Simulation[],Month[],Day of Month[],DST Indicator[1=yes 0=no],Hour[],StartMinute[],EndMinute[],DayType
3,3,Cumulative Day of Simulation[],Month[],Day of Month[],DST Indicator[1=yes 0=no],DayType  ! When Daily Report Variables Requested
4,2,Cumulative Days of Simulation[],Month[]  ! When Monthly Report Variables Requested
5,1,Cumulative Days of Simulation[] ! When Run Period Report Variables Requested
1929,1,THERMAL ZONE: SPACE 201,Zone Air Temperature [C] !Hourly
2695,1,THERMAL ZONE: SPACE 201 PEOPLE,Zone Thermal Comfort Fanger Model PMV [] !Hourly
3063,1,THERMAL ZONE: SPACE 305 PTHP,Zone Packaged Terminal Heat Pump Total Heating Energy [J] !Hourly
3064,1,THERMAL ZONE: SPACE 305 PTHP,Zone Packaged Terminal Heat Pump Total Cooling Energy [J] !Hourly
End of Data Dictionary
1,ANN HTG 99.6% CONDNS DB,  29.58, 106.47,   8.00, 259.10
2,1, 1,21, 0, 1, 0.00,60.00,WinterDesignDay
2695,-6.493806139348897
1929,18.000065871111958
3063,4653959.836067751
3064,0.0
2,1, 1,21, 0, 2, 0.00,60.00,WinterDesignDay
2695,-6.49771914321255
1929,18.00004979601442
3063,4673051.551065663
3064,0.0
2,1, 1,21, 0, 3, 0.00,60.00,WinterDesignDay
2695,-6.500980817555764
1929,18.0000357653073
3063,4692914.301220856
3064,0.0
2,1, 1,21, 0, 4, 0.00,60.00,WinterDesignDay
2695,-6.503839046727152
1929,18.000030321180725
3063,4710755.594502807
3064,0.0
2,1, 1,21, 0, 5, 0.00,60.00,WinterDesignDay
2695,-6.506553167172384
1929,18.00002390671868
3063,4731078.4597074999
3064,0.0
2,1, 1,21, 0, 6, 0.00,60.00,WinterDesignDay
2695,-6.508801712552867
1929,17.99999593587956
3063,4761553.141936981
3064,0.0
2,1, 1,21, 0, 7, 0.00,60.00,WinterDesignDay
2695,-5.677417102904978
1929,17.999927576136295
3063,4800792.909699887
3064,0.0
2,1, 1,21, 0, 8, 0.00,60.00,WinterDesignDay
2695,-5.674519235796956
1929,17.999833583136085
3063,5187408.197940014
3064,0.0
2,1, 1,21, 0, 9, 0.00,60.00,WinterDesignDay
2695,-5.31936777795273
1929,18.000098909810196
3063,6312602.310614344
3064,0.0
2,1, 1,21, 0,10, 0.00,60.00,WinterDesignDay
2695,-5.300544442757652
1929,18.00070561378439
3063,7306893.194697906
3064,0.0
2,1, 1,21, 0,11, 0.00,60.00,WinterDesignDay
2695,-5.288652743059901
1929,18.000899606682457
3063,7023689.8059514029
3064,0.0
2,1, 1,21, 0,12, 0.00,60.00,WinterDesignDay
2695,-5.280900454284709
1929,18.000926673786628
3063,6837307.574621891
3064,0.0
2,1, 1,21, 0,13, 0.00,60.00,WinterDesignDay
2695,-5.276667909434233
1929,18.0008408216932
3063,6368499.555027879
3064,0.0
2,1, 1,21, 0,14, 0.00,60.00,WinterDesignDay
2695,-5.27305522441424
1929,18.000816976792526
3063,6295281.112702899
3064,0.0
2,1, 1,21, 0,15, 0.00,60.00,WinterDesignDay
2695,-5.268418699000864
1929,18.00096229027441
3063,6558161.168480243
3064,0.0
2,1, 1,21, 0,16, 0.00,60.00,WinterDesignDay
2695,-5.2665884874364858
1929,18.00108947359025
3063,6545407.37367408
3064,0.0
2,1, 1,21, 0,17, 0.00,60.00,WinterDesignDay
2695,-5.26786541411452
1929,18.00114793339333
3063,6602518.788641259
3064,0.0
2,1, 1,21, 0,18, 0.00,60.00,WinterDesignDay
2695,-5.270230535160516
1929,18.00119444836017
3063,6689303.4083559089
3064,0.0
2,1, 1,21, 0,19, 0.00,60.00,WinterDesignDay
2695,-5.615430583187929
1929,18.0006830127718
3063,5224181.9878313229
3064,0.0
2,1, 1,21, 0,20, 0.00,60.00,WinterDesignDay
2695,-5.631006658424955
1929,18.000359248941494
3063,5400457.920644808
3064,0.0
2,1, 1,21, 0,21, 0.00,60.00,WinterDesignDay
2695,-5.641326756756526
1929,18.000188902790926
3063,4571009.115002504
3064,0.0
2,1, 1,21, 0,22, 0.00,60.00,WinterDesignDay
2695,-5.649347968188351
1929,18.0001152838361
3063,4614718.901743942
3064,0.0
2,1, 1,21, 0,23, 0.00,60.00,WinterDesignDay
2695,-5.654999347757214
1929,18.00008768095452
3063,4635378.270353799
3064,0.0
2,1, 1,21, 0,24, 0.00,60.00,WinterDesignDay
2695,-5.659591620189907
1929,18.000075256597666
3063,4648968.107348855
3064,0.0
1,ANN CLG 4% CONDNS DB =>MWB,  29.58, 106.47,   8.00, 259.10
2,1, 7,21, 0, 1, 0.00,60.00,SummerDesignDay
2695,-3.153024034017872
1929,25.999760078549604
3063,0.0
3064,881602.9381273845
2,1, 7,21, 0, 2, 0.00,60.00,SummerDesignDay
2695,-3.1632594642242926
1929,25.99983131236044
3063,0.0
3064,849159.4601310239
2,1, 7,21, 0, 3, 0.00,60.00,SummerDesignDay
2695,-3.171193265364485
1929,25.999880170468854
3063,0.0
3064,822029.2152737808
2,1, 7,21, 0, 4, 0.00,60.00,SummerDesignDay
2695,-3.1776541037180459
1929,25.999910732856013
3063,0.0
3064,798655.3234947252
2,1, 7,21, 0, 5, 0.00,60.00,SummerDesignDay
2695,-3.183239327710114
1929,25.999932212437945
3063,0.0
3064,776438.9549387612
2,1, 7,21, 0, 6, 0.00,60.00,SummerDesignDay
2695,-3.1880892194574375
1929,25.999961319104356
3063,0.0
3064,751079.5957612561
2,1, 7,21, 0, 7, 0.00,60.00,SummerDesignDay
2695,-3.8913405207108484
1929,25.99999664104104
3063,0.0
3064,720960.0437965019
2,1, 7,21, 0, 8, 0.00,60.00,SummerDesignDay
2695,-3.8683842372708727
1929,25.999681526274406
3063,0.0
3064,1125955.9332083695
2,1, 7,21, 0, 9, 0.00,60.00,SummerDesignDay
2695,-3.810265296101836
1929,25.996906911370528
3063,0.0
3064,3788210.6264393429
2,1, 7,21, 0,10, 0.00,60.00,SummerDesignDay
2695,-3.659869734502888
1929,26.580787973412414
3063,0.0
3064,6871448.104208853
2,1, 7,21, 0,11, 0.00,60.00,SummerDesignDay
2695,-3.5468811315406847
1929,26.98404098842816
3063,0.0
3064,6974498.2954562329
2,1, 7,21, 0,12, 0.00,60.00,SummerDesignDay
2695,-3.476922238423794
1929,27.2853749910354
3063,0.0
3064,6915042.508548357
2,1, 7,21, 0,13, 0.00,60.00,SummerDesignDay
2695,-3.5137057742893238
1929,26.96315370671392
3063,0.0
3064,6570187.065460362
2,1, 7,21, 0,14, 0.00,60.00,SummerDesignDay
2695,-3.520211435181256
1929,27.018865286598268
3063,0.0
3064,6331127.907745199
2,1, 7,21, 0,15, 0.00,60.00,SummerDesignDay
2695,-3.4101820232206316
1929,27.628055813888648
3063,0.0
3064,6661795.855061144
2,1, 7,21, 0,16, 0.00,60.00,SummerDesignDay
2695,-3.364679276552867
1929,27.674429248672696
3063,0.0
3064,6921789.335552967
2,1, 7,21, 0,17, 0.00,60.00,SummerDesignDay
2695,-3.3802886584519098
1929,27.551656719269276
3063,0.0
3064,7015040.784848865
2,1, 7,21, 0,18, 0.00,60.00,SummerDesignDay
2695,-3.4072245260386384
1929,27.377137245758538
3063,0.0
3064,7110110.936802427
2,1, 7,21, 0,19, 0.00,60.00,SummerDesignDay
2695,-3.5810796086136009
1929,26.047452366674404
3063,0.0
3064,4161187.890760679
2,1, 7,21, 0,20, 0.00,60.00,SummerDesignDay
2695,-3.691243028378843
1929,25.99701974301297
3063,0.0
3064,3391586.318453258
2,1, 7,21, 0,21, 0.00,60.00,SummerDesignDay
2695,-3.725343112856903
1929,25.99858437191369
3063,0.0
3064,1362199.7753609736
2,1, 7,21, 0,22, 0.00,60.00,SummerDesignDay
2695,-3.777424797170875
1929,25.999172890351617
3063,0.0
3064,1134477.8681642963
2,1, 7,21, 0,23, 0.00,60.00,SummerDesignDay
2695,-3.808758881125861
1929,25.999475973449337
3063,0.0
3064,1019799.5249864947
2,1, 7,21, 0,24, 0.00,60.00,SummerDesignDay
2695,-3.829290010366369
1929,25.999660646445475
3063,0.0
3064,949762.216149002
1,RUN PERIOD 1,  29.58, 106.47,   8.00, 259.10
2,1, 1, 1, 0, 1, 0.00,60.00,Holiday
2695,-6.121095449344285
1929,18.000205300565836
3063,1670470.0601741519
3064,0.0
2,1, 1, 1, 0, 2, 0.00,60.00,Holiday
2695,-6.124265156803509
1929,18.00007834965557
3063,1698114.578363399
3064,0.0
2,1, 1, 1, 0, 3, 0.00,60.00,Holiday
2695,-6.125788150295173
1929,18.000054491160463
3063,1703240.5842038063
3064,0.0
2,1, 1, 1, 0, 4, 0.00,60.00,Holiday
2695,-6.127503034675879
1929,18.000073946433507
3063,1703289.6855312489
3064,0.0
2,1, 1, 1, 0, 5, 0.00,60.00,Holiday
2695,-6.130593132680976
1929,18.000128733329828
3063,1699178.419785394
3064,0.0
2,1, 1, 1, 0, 6, 0.00,60.00,Holiday
2695,-6.137377088545097
1929,18.00016529369574
3063,1640368.647378066
3064,0.0
2,1, 1, 1, 0, 7, 0.00,60.00,Holiday
2695,-6.543831007830302
1929,18.000124012283505
3063,1686811.2218559958
3064,0.0
2,1, 1, 1, 0, 8, 0.00,60.00,Holiday
2695,-6.552845164214511
1929,18.000079602507645
3063,1748632.7180632218
3064,0.0
2,1, 1, 1, 0, 9, 0.00,60.00,Holiday
2695,-6.058040761885697
1929,18.000039809503745
3063,1809026.724948044
3064,0.0
2,1, 1, 1, 0,10, 0.00,60.00,Holiday
2695,-6.060736026155602
1929,18.000008752763937
3063,1873591.3726379693
3064,0.0
2,1, 1, 1, 0,11, 0.00,60.00,Holiday
2695,-6.061540140731856
1929,18.000005547813115
3063,1917078.3644530178
3064,0.0
2,1, 1, 1, 0,12, 0.00,60.00,Holiday
2695,-6.0620975603881439
1929,18.000002290509739
3063,1939540.876988006
3064,0.0
2,1, 1, 1, 0,13, 0.00,60.00,Holiday
2695,-6.0627730364428
1929,18.000000684752924
3063,1982421.705397046
3064,0.0
2,1, 1, 1, 0,14, 0.00,60.00,Holiday
2695,-6.061465984525033
1929,18.000000567570195
3063,2022718.3086459113
3064,0.0
2,1, 1, 1, 0,15, 0.00,60.00,Holiday
2695,-6.0578552590673129
1929,18.00000045773204
3063,2047347.7738058116
3064,0.0
2,1, 1, 1, 0,16, 0.00,60.00,Holiday
2695,-6.051794307545642
1929,18.000000357116165
3063,2058553.7224029992
3064,0.0
2,1, 1, 1, 0,17, 0.00,60.00,Holiday
2695,-6.0432003757465939
1929,18.000000279421504
3063,2053786.301922792
3064,0.0
2,1, 1, 1, 0,18, 0.00,60.00,Holiday
2695,-6.0324826414937109
1929,18.00000023114453
3063,2027169.9599342647
3064,0.0
2,1, 1, 1, 0,19, 0.00,60.00,Holiday
2695,-6.515053006958875
1929,18.00000020545308
3063,1976454.8468450676
3064,0.0
2,1, 1, 1, 0,20, 0.00,60.00,Holiday
2695,-6.502574208560808
1929,18.0000002096823
3063,1885768.138187293
3064,0.0
2,1, 1, 1, 0,21, 0.00,60.00,Holiday
2695,-6.495660978206879
1929,18.00005552099726
3063,1771788.2004656005
3064,0.0
2,1, 1, 1, 0,22, 0.00,60.00,Holiday
2695,-6.496139369742423
1929,18.00029136007115
3063,1685379.1888759046
3064,0.0
2,1, 1, 1, 0,23, 0.00,60.00,Holiday
2695,-6.501787396793059
1929,18.000384805058244
3063,1645638.2294530112
3064,0.0
2,1, 1, 1, 0,24, 0.00,60.00,Holiday
2695,-6.509400406020185
1929,18.00037524087935
3063,1635174.784934891
3064,0.0
2,2, 1, 2, 0, 1, 0.00,60.00,Holiday
2695,-6.516514794347809
1929,18.000340967422848
3063,1634910.57441968
3064,0.0
2,2, 1, 2, 0, 2, 0.00,60.00,Holiday
2695,-6.523610528254012
1929,18.000277977061264
3063,1648693.0429606573
3064,0.0
2,2, 1, 2, 0, 3, 0.00,60.00,Holiday
2695,-6.530006174127269
1929,18.000200560909094
3063,1671824.1059395935
3064,0.0
2,2, 1, 2, 0, 4, 0.00,60.00,Holiday
2695,-6.53495380337817
1929,18.00014082311499
3063,1694799.7658898205
3064,0.0
2,2, 1, 2, 0, 5, 0.00,60.00,Holiday
2695,-6.538932383979458
1929,18.000101195300404
3063,1717828.5490861189
3064,0.0
2,2, 1, 2, 0, 6, 0.00,60.00,Holiday
2695,-6.5423680759081759
1929,18.000075074124259
3063,1742742.8254510535
3064,0.0
2,2, 1, 2, 0, 7, 0.00,60.00,Holiday
2695,-6.64597922255804
1929,18.000064648464286
3063,1767556.9484713998
3064,0.0
2,2, 1, 2, 0, 8, 0.00,60.00,Holiday
2695,-6.64916539686305
1929,18.000049796876057
3063,1797734.7197263237
3064,0.0
2,2, 1, 2, 0, 9, 0.00,60.00,Holiday
2695,-6.133985035203654
1929,18.000004360631228
3063,1848403.9354920146
3064,0.0
2,2, 1, 2, 0,10, 0.00,60.00,Holiday
2695,-6.134040774468418
1929,18.00000054480141
3063,1903333.6201256137
3064,0.0
2,2, 1, 2, 0,11, 0.00,60.00,Holiday
2695,-6.132519382904365
1929,18.00000048477916
3063,1928611.27285287
3064,0.0
2,2, 1, 2, 0,12, 0.00,60.00,Holiday
2695,-6.131405632551476
1929,18.00000044153439
3063,1948589.4223478472
3064,0.0
2,2, 1, 2, 0,13, 0.00,60.00,Holiday
2695,-6.13040618470171
1929,18.00000040730015
3063,1966624.8730969858
3064,0.0
2,2, 1, 2, 0,14, 0.00,60.00,Holiday
2695,-6.129232522370574
1929,18.000000369436135
3063,1980606.5256664195
3064,0.0
2,2, 1, 2, 0,15, 0.00,60.00,Holiday
2695,-6.126938558934448
1929,18.00000032102896
3063,1996236.522967364
3064,0.0
2,2, 1, 2, 0,16, 0.00,60.00,Holiday
2695,-6.122340723125305
1929,18.000000276611826
3063,1999082.356429461
3064,0.0
2,2, 1, 2, 0,17, 0.00,60.00,Holiday
2695,-6.1159490033888519
1929,18.000000263260046
3063,1951860.4454119513
3064,0.0
2,2, 1, 2, 0,18, 0.00,60.00,Holiday
2695,-6.110742579800234
1929,18.00000027957298
3063,1875420.234872609
3064,0.0
2,2, 1, 2, 0,19, 0.00,60.00,Holiday
2695,-6.620545367535247
1929,18.000024010691545
3063,1806222.220087979
3064,0.0
2,2, 1, 2, 0,20, 0.00,60.00,Holiday
2695,-6.618929855770104
1929,18.000094572442334
3063,1748713.3603623487
3064,0.0
2,2, 1, 2, 0,21, 0.00,60.00,Holiday
2695,-6.618825923652366
1929,18.00009162938287
3063,1717176.3073360492
3064,0.0
2,2, 1, 2, 0,22, 0.00,60.00,Holiday
2695,-6.618521420983981
1929,18.00002082007727
3063,1712676.8453311239
3064,0.0
2,2, 1, 2, 0,23, 0.00,60.00,Holiday
2695,-6.61706548013764
1929,18.0000003875976
3063,1705669.6809900376
3064,0.0
2,2, 1, 2, 0,24, 0.00,60.00,Holiday
2695,-6.616147874611406
1929,18.00004281999013
3063,1681520.5603789758
3064,0.0
2,3, 1, 3, 0, 1, 0.00,60.00,Holiday
2695,-6.6180007054008789
1929,18.00011417759048
3063,1664467.6375178314
3064,0.0
2,3, 1, 3, 0, 2, 0.00,60.00,Holiday
2695,-6.622219579743938
1929,18.00020665870787
3063,1645145.4303882099
3064,0.0
2,3, 1, 3, 0, 3, 0.00,60.00,Holiday
2695,-6.629917347544175
1929,18.000246908422196
3063,1599307.0212683548
3064,0.0
2,3, 1, 3, 0, 4, 0.00,60.00,Holiday
2695,-6.643114183621218
1929,18.000159137751994
3063,1638777.1236462987
3064,0.0
2,3, 1, 3, 0, 5, 0.00,60.00,Holiday
2695,-6.652605823742024
1929,18.00008204058197
3063,1715096.327432098
3064,0.0
2,3, 1, 3, 0, 6, 0.00,60.00,Holiday
2695,-6.658090196166962
1929,18.000040212516358
3063,1767442.2617452574
3064,0.0
2,3, 1, 3, 0, 7, 0.00,60.00,Holiday
2695,-6.563316546019421
1929,18.00000745715434
3063,1836849.326572372
3064,0.0
2,3, 1, 3, 0, 8, 0.00,60.00,Holiday
2695,-6.563655761464205
1929,18.00000362062006
3063,1862661.6205101507
3064,0.0
2,3, 1, 3, 0, 9, 0.00,60.00,Holiday
2695,-6.062918978340794
1929,18.000000722328875
3063,1895165.007463851
3064,0.0
2,3, 1, 3, 0,10, 0.00,60.00,Holiday
2695,-6.063594826655334
1929,18.000000676456837
3063,1930098.3540780657
3064,0.0
2,3, 1, 3, 0,11, 0.00,60.00,Holiday
2695,-6.064474854694365
1929,18.000000641718807
3063,1966132.3146163424
3064,0.0
2,3, 1, 3, 0,12, 0.00,60.00,Holiday
2695,-6.065309665548899
1929,18.000000609660736
3063,1999159.1318787214
3064,0.0
2,3, 1, 3, 0,13, 0.00,60.00,Holiday
2695,-6.066408848958701
1929,18.00000058720606
3063,2030551.1913174785
3064,0.0
2,3, 1, 3, 0,14, 0.00,60.00,Holiday
2695,-6.067536614560567
1929,18.000000570754449
3063,2061913.659913591
3064,0.0
2,3, 1, 3, 0,15, 0.00,60.00,Holiday
2695,-6.068510104408798
1929,18.00000056123768
3063,2092758.5240808735
3064,0.0
2,3, 1, 3, 0,16, 0.00,60.00,Holiday
2695,-6.069088454003972
1929,18.00000055621742
3063,2120229.7317992288
3064,0.0
2,3, 1, 3, 0,17, 0.00,60.00,Holiday
2695,-6.0691620665225269
1929,18.000000550306017
3063,2149461.8358355194
3064,0.0
2,3, 1, 3, 0,18, 0.00,60.00,Holiday
2695,-6.068379438885311
1929,18.00000055050981
3063,2171117.3828997949
3064,0.0
2,3, 1, 3, 0,19, 0.00,60.00,Holiday
2695,-6.570645459683425
1929,18.000000548144887
3063,2188839.9642863685
3064,0.0
2,3, 1, 3, 0,20, 0.00,60.00,Holiday
2695,-6.568460864227371
1929,18.000000553729629
3063,2202577.3798898847
3064,0.0
2,3, 1, 3, 0,21, 0.00,60.00,Holiday
2695,-6.56591994074206
1929,18.0000005622869
3063,2209624.4274831518
3064,0.0
2,3, 1, 3, 0,22, 0.00,60.00,Holiday
2695,-6.563573243405945
1929,18.00000057274536
3063,2211302.5687057639
3064,0.0
2,3, 1, 3, 0,23, 0.00,60.00,Holiday
2695,-6.561864802220664
1929,18.000000588855277
3063,2214043.2341893378
3064,0.0
2,3, 1, 3, 0,24, 0.00,60.00,Holiday
2695,-6.560842282051037
1929,18.00000060544474
3063,2212578.406964155
3064,0.0
2,4, 1, 4, 0, 1, 0.00,60.00,Wednesday
2695,-6.5608263054080429
1929,18.00000062262026
3063,2219554.091251701
3064,0.0
2,4, 1, 4, 0, 2, 0.00,60.00,Wednesday
2695,-6.561082541329889
1929,18.00000206510745
3063,2224536.8840083668
3064,0.0
2,4, 1, 4, 0, 3, 0.00,60.00,Wednesday
2695,-6.561863563129183
1929,18.000001509325278
3063,2234808.3308410809
3064,0.0
2,4, 1, 4, 0, 4, 0.00,60.00,Wednesday
2695,-6.562498584625701
1929,18.0000006776057
3063,2248732.245555723
3064,0.0
2,4, 1, 4, 0, 5, 0.00,60.00,Wednesday
2695,-6.562760992010169
1929,18.000000688187634
3063,2265232.3756807867
3064,0.0
2,4, 1, 4, 0, 6, 0.00,60.00,Wednesday
2695,-6.562463484251983
1929,18.000000701439693
3063,2276426.381736667
3064,0.0
2,4, 1, 4, 0, 7, 0.00,60.00,Wednesday
2695,-6.691804313041698
1929,18.000000712611905
3063,2282354.3833305106
3064,0.0
2,4, 1, 4, 0, 8, 0.00,60.00,Wednesday
2695,-6.690196568074351
1929,18.000025541612567
3063,2279184.784833296
3064,0.0
2,4, 1, 4, 0, 9, 0.00,60.00,Wednesday
2695,-6.153320445652518
1929,18.000206525916768
3063,2188964.5028662539
3064,0.0
2,4, 1, 4, 0,10, 0.00,60.00,Wednesday
2695,-6.135801631046256
1929,18.00042201717382
3063,2035037.6445849338
3064,0.0
2,4, 1, 4, 0,11, 0.00,60.00,Wednesday
2695,-6.129766723519612
1929,18.000512620808509
3063,1948069.555678431
3064,0.0
2,4, 1, 4, 0,12, 0.00,60.00,Wednesday
2695,-6.130672004069147
1929,18.00049184066611
3063,1888545.784898103
3064,0.0
2,4, 1, 4, 0,13, 0.00,60.00,Wednesday
2695,-6.132446440829878
1929,18.00047767132813
3063,1853821.3416207464
3064,0.0
2,4, 1, 4, 0,14, 0.00,60.00,Wednesday
2695,-6.133009185980164
1929,18.000413403800363
3063,1769035.9108613763
3064,0.0
2,4, 1, 4, 0,15, 0.00,60.00,Wednesday
2695,-6.127523040135144
1929,18.000294703616399
3063,1564117.509377343
3064,0.0
2,4, 1, 4, 0,16, 0.00,60.00,Wednesday
2695,-6.116973605474091
1929,18.000226640677295
3063,1396938.6142185729
3064,0.0
2,4, 1, 4, 0,17, 0.00,60.00,Wednesday
2695,-6.1062389830627279
1929,18.000225465323749
3063,1310319.6952398762
3064,0.0
2,4, 1, 4, 0,18, 0.00,60.00,Wednesday
2695,-6.10029127629359
1929,18.000249644255847
3063,1313577.558693205
3064,0.0
2,4, 1, 4, 0,19, 0.00,60.00,Wednesday
2695,-6.6200967430385779
1929,18.000404567213346
3063,1785343.263250791
3064,0.0
2,4, 1, 4, 0,20, 0.00,60.00,Wednesday
2695,-6.632203303443917
1929,18.000275807554087
3063,1846579.3068204013
3064,0.0
2,4, 1, 4, 0,21, 0.00,60.00,Wednesday
2695,-6.640889265176106
1929,18.000255691199599
3063,1968543.7137780723
3064,0.0
2,4, 1, 4, 0,22, 0.00,60.00,Wednesday
2695,-6.6476244228311149
1929,18.00019251717294
3063,1984670.4985108914
3064,0.0
2,4, 1, 4, 0,23, 0.00,60.00,Wednesday
2695,-6.652676888214278
1929,18.000147646048768
3063,1992752.6168880175
3064,0.0
2,4, 1, 4, 0,24, 0.00,60.00,Wednesday
2695,-6.656972221505316
1929,18.000131140902125
3063,1995783.4578067214
3064,0.0
2,5, 1, 5, 0, 1, 0.00,60.00,Thursday
2695,-6.661630590136028
1929,18.000118447701078
3063,2002480.364925249
3064,0.0
2,5, 1, 5, 0, 2, 0.00,60.00,Thursday
2695,-6.665930346762468
1929,18.000112544890894
3063,2010278.3607065939
3064,0.0
2,5, 1, 5, 0, 3, 0.00,60.00,Thursday
2695,-6.66993139293677
1929,18.000127077573564
3063,2014715.2044077295
3064,0.0
2,5, 1, 5, 0, 4, 0.00,60.00,Thursday
2695,-6.674528010647102
1929,18.000158523212293
3063,2016607.7531254136
3064,0.0
2,5, 1, 5, 0, 5, 0.00,60.00,Thursday
2695,-6.679871041428366
1929,18.00016375959409
3063,2028006.116362325
3064,0.0
2,5, 1, 5, 0, 6, 0.00,60.00,Thursday
2695,-6.685144439000479
1929,18.000150884062014
3063,2043690.2682331964
3064,0.0
2,5, 1, 5, 0, 7, 0.00,60.00,Thursday
2695,-6.70190301506992
1929,18.00016311844623
3063,2050248.2504718167
3064,0.0
2,5, 1, 5, 0, 8, 0.00,60.00,Thursday
2695,-6.705977062605041
1929,18.000155619601335
3063,2062902.3664210605
3064,0.0
2,5, 1, 5, 0, 9, 0.00,60.00,Thursday
2695,-6.170856895808288
1929,18.00022623631575
3063,1996507.308955131
3064,0.0
2,5, 1, 5, 0,10, 0.00,60.00,Thursday
2695,-6.153435685925718
1929,18.00036622998341
3063,1855325.8823326978
3064,0.0
2,5, 1, 5, 0,11, 0.00,60.00,Thursday
2695,-6.143744193197623
1929,18.000423315764285
3063,1763241.7164861288
3064,0.0
2,5, 1, 5, 0,12, 0.00,60.00,Thursday
2695,-6.139879066912568
1929,18.000416547395344
3063,1701157.494857995
3064,0.0
2,5, 1, 5, 0,13, 0.00,60.00,Thursday
2695,-6.137920757576436
1929,18.000390793581678
3063,1681489.2346254278
3064,0.0
2,5, 1, 5, 0,14, 0.00,60.00,Thursday
2695,-6.133929236067803
1929,18.000364817432783
3063,1618600.901055043
3064,0.0
2,5, 1, 5, 0,15, 0.00,60.00,Thursday
2695,-6.128323770066338
1929,18.00032101086181
3063,1482791.3029894627
3064,0.0
2,5, 1, 5, 0,16, 0.00,60.00,Thursday
2695,-6.123108710820291
1929,18.000295902410387
3063,1389334.5511012085
3064,0.0
2,5, 1, 5, 0,17, 0.00,60.00,Thursday
2695,-6.11845742969063
1929,18.000263366800764
3063,1296287.5192948757
3064,0.0
2,5, 1, 5, 0,18, 0.00,60.00,Thursday
2695,-6.1140079925914849
1929,18.000238068419763
3063,1211467.6284554904
3064,0.0
2,5, 1, 5, 0,19, 0.00,60.00,Thursday
2695,-6.6364975672506649
1929,18.000376563306316
3063,1611785.754157672
3064,0.0
2,5, 1, 5, 0,20, 0.00,60.00,Thursday
2695,-6.6491476866621659
1929,18.000259395950687
3063,1649588.5132601986
3064,0.0
2,5, 1, 5, 0,21, 0.00,60.00,Thursday
2695,-6.658487216874531
1929,18.000268217267274
3063,1819545.7052000289
3064,0.0
2,5, 1, 5, 0,22, 0.00,60.00,Thursday
2695,-6.6660837392448439
1929,18.00023484552398
3063,1835030.1419952317
3064,0.0
2,5, 1, 5, 0,23, 0.00,60.00,Thursday
2695,-6.672602234604565
1929,18.00018664194917
3063,1851839.3627603048
3064,0.0
2,5, 1, 5, 0,24, 0.00,60.00,Thursday
2695,-6.677659187939593
1929,18.000092373932259
3063,1881643.0290115756
3064,0.0
2,6, 1, 6, 0, 1, 0.00,60.00,Friday
2695,-6.680055401132908
1929,18.000037770054914
3063,1898266.698284255
3064,0.0
2,6, 1, 6, 0, 2, 0.00,60.00,Friday
2695,-6.681576479670464
1929,18.00000462913658
3063,1916639.77027008
3064,0.0
2,6, 1, 6, 0, 3, 0.00,60.00,Friday
2695,-6.682042386169285
1929,18.000000504962374
3063,1936941.1818996454
3064,0.0
2,6, 1, 6, 0, 4, 0.00,60.00,Friday
2695,-6.681554547972421
1929,18.0000005226085
3063,1953047.4541933716
3064,0.0
2,6, 1, 6, 0, 5, 0.00,60.00,Friday
2695,-6.680556184032485
1929,18.000000534031213
3063,1966134.9760082155
3064,0.0
2,6, 1, 6, 0, 6, 0.00,60.00,Friday
2695,-6.679437191681303
1929,18.00000054052734
3063,1978916.4250317594
3064,0.0
2,6, 1, 6, 0, 7, 0.00,60.00,Friday
2695,-6.675678087538266
1929,18.0000005471251
3063,1980531.5202157512
3064,0.0
2,6, 1, 6, 0, 8, 0.00,60.00,Friday
2695,-6.674279928220471
1929,18.0000193184546
3063,1975341.6585370817
3064,0.0
2,6, 1, 6, 0, 9, 0.00,60.00,Friday
2695,-6.140717592845781
1929,18.000167035320524
3063,1855469.202569407
3064,0.0
2,6, 1, 6, 0,10, 0.00,60.00,Friday
2695,-6.1214607599795809
1929,18.000297283539795
3063,1576897.0170316236
3064,0.0
2,6, 1, 6, 0,11, 0.00,60.00,Friday
2695,-6.112585073057954
1929,18.000306823331369
3063,1386253.734804079
3064,0.0
2,6, 1, 6, 0,12, 0.00,60.00,Friday
2695,-6.110326350426921
1929,18.000241030282074
3063,1220071.245108013
3064,0.0
2,6, 1, 6, 0,13, 0.00,60.00,Friday
2695,-6.109350834076103
1929,18.000214878039505
3063,1144329.080569172
3064,0.0
2,6, 1, 6, 0,14, 0.00,60.00,Friday
2695,-6.106983604199935
1929,18.00016916583492
3063,954422.9662091245
3064,0.0
2,6, 1, 6, 0,15, 0.00,60.00,Friday
2695,-6.081850466548976
1929,18.13460977829268
3063,519921.19938469628
3064,0.0
2,6, 1, 6, 0,16, 0.00,60.00,Friday
2695,-6.02092798701322
1929,18.386549731082928
3063,215061.16510482977
3064,0.0
2,6, 1, 6, 0,17, 0.00,60.00,Friday
2695,-5.973213903338905
1929,18.51245247393348
3063,47622.438497525
3064,0.0
2,6, 1, 6, 0,18, 0.00,60.00,Friday
2695,-5.957740254797817
1929,18.49962763317944
3063,19760.238921918237
3064,0.0
2,6, 1, 6, 0,19, 0.00,60.00,Friday
2695,-6.523223611780224
1929,18.017629859789744
3063,938809.5009908646
3064,0.0
2,6, 1, 6, 0,20, 0.00,60.00,Friday
2695,-6.553493798758711
1929,18.000182658267545
3063,929546.4575169934
3064,0.0
2,6, 1, 6, 0,21, 0.00,60.00,Friday
2695,-6.559900615930616
1929,18.000256098412689
3063,1197386.7437855087
3064,0.0
2,6, 1, 6, 0,22, 0.00,60.00,Friday
2695,-6.563376281124533
1929,18.00021546907178
3063,1160603.7328335592
3064,0.0
2,6, 1, 6, 0,23, 0.00,60.00,Friday
2695,-6.566479274194756
1929,18.000202647884298
3063,1129845.4772743823
3064,0.0
2,6, 1, 6, 0,24, 0.00,60.00,Friday
2695,-6.570200982479619
1929,18.00020185543519
3063,1110204.4840393272
3064,0.0
2,7, 1, 7, 0, 1, 0.00,60.00,Saturday
2695,-6.5747662367975929
1929,18.00019035691616
3063,1105024.3133413553
3064,0.0
2,7, 1, 7, 0, 2, 0.00,60.00,Saturday
2695,-6.579776898782043
1929,18.000193848744908
3063,1106044.0754351523
3064,0.0
2,7, 1, 7, 0, 3, 0.00,60.00,Saturday
2695,-6.58560525379398
1929,18.000211692145347
3063,1111396.5114114867
3064,0.0
2,7, 1, 7, 0, 4, 0.00,60.00,Saturday
2695,-6.592653688369957
1929,18.000235889366889
3063,1120633.7011745172
3064,0.0
2,7, 1, 7, 0, 5, 0.00,60.00,Saturday
2695,-6.60121667105514
1929,18.000266743626665
3063,1111253.7186060409
3064,0.0
2,7, 1, 7, 0, 6, 0.00,60.00,Saturday
2695,-6.616870116313977
1929,18.000231819191453
3063,1066580.0770566278
3064,0.0
2,7, 1, 7, 0, 7, 0.00,60.00,Saturday
2695,-6.4277740661130269
1929,18.000153952923996
3063,1146668.0134220287
3064,0.0
2,7, 1, 7, 0, 8, 0.00,60.00,Saturday
2695,-6.440962827963486
1929,18.00009190626918
3063,1229152.0697530495
3064,0.0
2,7, 1, 7, 0, 9, 0.00,60.00,Saturday
2695,-5.969619693658122
1929,18.000056358162227
3063,1297334.4014754093
3064,0.0
2,7, 1, 7, 0,10, 0.00,60.00,Saturday
2695,-5.97530944528699
1929,18.000044867240093
3063,1351264.5020859573
3064,0.0
2,7, 1, 7, 0,11, 0.00,60.00,Saturday
2695,-5.9803209820283469
1929,18.00003328700314
3063,1410704.1658251309
3064,0.0
2,7, 1, 7, 0,12, 0.00,60.00,Saturday
2695,-5.98442117255168
1929,18.000022927271595
3063,1464244.5261912589
3064,0.0
2,7, 1, 7, 0,13, 0.00,60.00,Saturday
2695,-5.987335336708205
1929,18.000001548811829
3063,1509799.2214332957
3064,0.0
2,7, 1, 7, 0,14, 0.00,60.00,Saturday
2695,-5.988072518207878
1929,18.000000269520667
3063,1542939.2785039317
3064,0.0
2,7, 1, 7, 0,15, 0.00,60.00,Saturday
2695,-5.985574004760611
1929,18.00000017672165
3063,1558052.2218184092
3064,0.0
2,7, 1, 7, 0,16, 0.00,60.00,Saturday
2695,-5.978856822848627
1929,18.00000012069087
3063,1531916.9889376516
3064,0.0
2,7, 1, 7, 0,17, 0.00,60.00,Saturday
2695,-5.969274818825401
1929,18.000000105559058
3063,1434683.5878595
3064,0.0
2,7, 1, 7, 0,18, 0.00,60.00,Saturday
2695,-5.96046484186494
1929,18.000000107399687
3063,1311713.3098455354
3064,0.0
2,7, 1, 7, 0,19, 0.00,60.00,Saturday
2695,-6.4302156047440059
1929,18.00000011242086
3063,1194485.490685881
3064,0.0
2,7, 1, 7, 0,20, 0.00,60.00,Saturday
2695,-6.421747594699661
1929,18.000000119464187
3063,1091915.6124947468
3064,0.0
2,7, 1, 7, 0,21, 0.00,60.00,Saturday
2695,-6.414271048090142
1929,18.000000128699626
3063,1007292.2335206803
3064,0.0
2,7, 1, 7, 0,22, 0.00,60.00,Saturday
2695,-6.408308729690362
1929,18.00000013982902
3063,943239.3547102665
3064,0.0
2,7, 1, 7, 0,23, 0.00,60.00,Saturday
2695,-6.404001386072441
1929,18.000000989254315
3063,898738.1221141004
3064,0.0
2,7, 1, 7, 0,24, 0.00,60.00,Saturday
2695,-6.401525827935608
1929,18.000027488848479
3063,871323.5108732658
3064,0.0
2,8, 1, 8, 0, 1, 0.00,60.00,Sunday
2695,-6.400660600041093
1929,18.000032696748517
3063,863770.9937154313
3064,0.0
2,8, 1, 8, 0, 2, 0.00,60.00,Sunday
2695,-6.40049432583562
1929,18.000028199639748
3063,869135.6060032417
3064,0.0
2,8, 1, 8, 0, 3, 0.00,60.00,Sunday
2695,-6.400964388285998
1929,18.000031612669799
3063,882559.2367148793
3064,0.0
2,8, 1, 8, 0, 4, 0.00,60.00,Sunday
2695,-6.40211930522731
1929,18.000035597856966
3063,903739.8155928595
3064,0.0
2,8, 1, 8, 0, 5, 0.00,60.00,Sunday
2695,-6.403837337713849
1929,18.000030090466838
3063,933272.0862903608
3064,0.0
2,8, 1, 8, 0, 6, 0.00,60.00,Sunday
2695,-6.405856259657561
1929,18.000035860794985
3063,964989.6159937575
3064,0.0
2,8, 1, 8, 0, 7, 0.00,60.00,Sunday
2695,-6.618879954348942
1929,18.000046688864633
3063,999074.679719915
3064,0.0
2,8, 1, 8, 0, 8, 0.00,60.00,Sunday
2695,-6.622081901951262
1929,18.000051873600289
3063,1037104.870530253
3064,0.0
2,8, 1, 8, 0, 9, 0.00,60.00,Sunday
2695,-6.113186768995998
1929,18.00004711063502
3063,1079882.5042794259
3064,0.0
2,8, 1, 8, 0,10, 0.00,60.00,Sunday
2695,-6.116033970135198
1929,18.000035106810097
3063,1126058.0601951597
3064,0.0
2,8, 1, 8, 0,11, 0.00,60.00,Sunday
2695,-6.118623567628824
1929,18.00000818000228
3063,1176923.6202443215
3064,0.0
2,8, 1, 8, 0,12, 0.00,60.00,Sunday
2695,-6.120617544159338
1929,18.00000023414162
3063,1222798.8929956866
3064,0.0
2,8, 1, 8, 0,13, 0.00,60.00,Sunday
2695,-6.122387047505196
1929,18.000001190255416
3063,1258574.7828222395
3064,0.0
2,8, 1, 8, 0,14, 0.00,60.00,Sunday
2695,-6.123893886919549
1929,18.000000209366005
3063,1287383.7834911412
3064,0.0
2,8, 1, 8, 0,15, 0.00,60.00,Sunday
2695,-6.124534992247711
1929,18.000000165104866
3063,1303663.2358566649
3064,0.0
2,8, 1, 8, 0,16, 0.00,60.00,Sunday
2695,-6.12384456090465
1929,18.000000149241449
3063,1300419.7267155559
3064,0.0
2,8, 1, 8, 0,17, 0.00,60.00,Sunday
2695,-6.121604618737027
1929,18.00000013860515
3063,1273075.4228813519
3064,0.0
2,8, 1, 8, 0,18, 0.00,60.00,Sunday
2695,-6.1181097080081339
1929,18.00000013558432
3063,1227427.7415720307
3064,0.0
2,8, 1, 8, 0,19, 0.00,60.00,Sunday
2695,-6.626638280973082
1929,18.00000014127665
3063,1165074.0981241554
3064,0.0
2,8, 1, 8, 0,20, 0.00,60.00,Sunday
2695,-6.621773404178079
1929,18.000000149786947
3063,1102355.4251076428
3064,0.0
2,8, 1, 8, 0,21, 0.00,60.00,Sunday
2695,-6.617741687326557
1929,18.000000156679268
3063,1058471.5068327492
3064,0.0
2,8, 1, 8, 0,22, 0.00,60.00,Sunday
2695,-6.613982802633106
1929,18.000000158671648
3063,1037637.8344064846
3064,0.0
2,8, 1, 8, 0,23, 0.00,60.00,Sunday
2695,-6.610074372899415
1929,18.000000164150888
3063,1023067.0733649078
3064,0.0
2,8, 1, 8, 0,24, 0.00,60.00,Sunday
2695,-6.607261840551865
1929,18.00000018292667
3063,1011743.9770030074
3064,0.0
2,9, 1, 9, 0, 1, 0.00,60.00,Monday
2695,-6.606558234372401
1929,18.000011489658364
3063,1006842.147818236
3064,0.0
2,9, 1, 9, 0, 2, 0.00,60.00,Monday
2695,-6.607577916021232
1929,18.000040368159288
3063,1014632.1683388233
3064,0.0
2,9, 1, 9, 0, 3, 0.00,60.00,Monday
2695,-6.609339590478084
1929,18.000043844355099
3063,1035415.6664063656
3064,0.0
2,9, 1, 9, 0, 4, 0.00,60.00,Monday
2695,-6.611483203470635
1929,18.000030703044769
3063,1065731.8432212638
3064,0.0
2,9, 1, 9, 0, 5, 0.00,60.00,Monday
2695,-6.613603195516149
1929,18.00001395992085
3063,1101481.2288313395