Program Version,EnergyPlus, Version 8.7.0-78a111df4a, YMD=2019.08.06 22:38
1,5,Environment Title[],Latitude[deg],Longitude[deg],Time Zone[],Elevation[m]
2,6,Day of Simulation[],Month[],Day of Month[],DST Indicator[1=yes 0=no],Hour[],StartMinute[],EndMinute[],DayType
3,3,Cumulative Day of Simulation[],Month[],Day of Month[],DST Indicator[1=yes 0=no],DayType  ! When Daily Report Variables Requested
4,2,Cumulative Days of Simulation[],Month[]  ! When Monthly Report Variables Requested
5,1,Cumulative Days of Simulation[] ! When Run Period Report Variables Requested
5408,1,3F-B-BED2,Zone Air Temperature [C] !Hourly
7437,1,3F-B-BED2 IDEAL LOADS AIR SYSTEM,Zone Ideal Loads Zone Total Heating Energy [J] !Hourly
7438,1,3F-B-BED2 IDEAL LOADS AIR SYSTEM,Zone Ideal Loads Zone Total Cooling Energy [J] !Hourly
7592,1,3F-B-BED2 BEDROOM-B,Zone Thermal Comfort Fanger Model PMV [] !Hourly
End of Data Dictionary
1,ANNUAL,  29.58, 106.47,   8.00, 259.10
2,1, 1, 1, 0, 1, 0.00,60.00,Sunday
7592,-0.995655487830418
5408,18.000000000000033
7437,908521.1301699928
7438,0.0
2,1, 1, 1, 0, 2, 0.00,60.00,Sunday
7592,-0.9838976519199294
5408,18.000000000000026
7437,936405.4556326689
7438,0.0
2,1, 1, 1, 0, 3, 0.00,60.00,Sunday
7592,-0.9785146383903158
5408,18.00000000000002
7437,945131.4825628342
7438,0.0
2,1, 1, 1, 0, 4, 0.00,60.00,Sunday
7592,-0.9766894317075984
5408,18.00000000000002
7437,972498.1436051588
7438,0.0
2,1, 1, 1, 0, 5, 0.00,60.00,Sunday
7592,-0.9771177450792123
5408,18.00000000000001
7437,1025515.528911602
7438,0.0
2,1, 1, 1, 0, 6, 0.00,60.00,Sunday
7592,-0.9787418489416521
5408,18.00000000000001
7437,1084207.8644591463
7438,0.0
2,1, 1, 1, 0, 7, 0.00,60.00,Sunday
7592,-0.9814088345927519
5408,17.99999999999997
7437,1137411.243049845
7438,0.0
2,1, 1, 1, 0, 8, 0.00,60.00,Sunday
7592,-0.9837182008961057
5408,18.000000000000047
7437,1175384.596606128
7438,0.0
2,1, 1, 1, 0, 9, 0.00,60.00,Sunday
7592,-1.2675275693876045
5408,15.580525281943471
7437,0.0
7438,0.0
2,1, 1, 1, 0,10, 0.00,60.00,Sunday
7592,-1.4996647585786117
5408,14.943056681566399
7437,0.0
7438,0.0
2,1, 1, 1, 0,11, 0.00,60.00,Sunday
7592,-1.5310811650321572
5408,14.95789510913614
7437,0.0
7438,0.0
2,1, 1, 1, 0,12, 0.00,60.00,Sunday
7592,-1.5369723820276227
5408,14.998104325422672
7437,0.0
7438,0.0
2,1, 1, 1, 0,13, 0.00,60.00,Sunday
7592,-1.3698730231909842
5408,16.60625791819867
7437,985715.2805186096
7438,0.0
2,1, 1, 1, 0,14, 0.00,60.00,Sunday
7592,-1.0352288436250617
5408,18.00000000009359
7437,1001778.0774077304
7438,0.0
2,1, 1, 1, 0,15, 0.00,60.00,Sunday
7592,-1.232696211643994
5408,16.000446684287746
7437,0.0
7438,0.0
2,1, 1, 1, 0,16, 0.00,60.00,Sunday
7592,-1.3938878186967845
5408,15.524917912996477
7437,0.0
7438,0.0
2,1, 1, 1, 0,17, 0.00,60.00,Sunday
7592,-1.3890750002812587
5408,15.66165844533118
7437,0.0
7438,0.0
2,1, 1, 1, 0,18, 0.00,60.00,Sunday
7592,-1.3639386181484306
5408,15.784968029910625
7437,0.0
7438,0.0
2,1, 1, 1, 0,19, 0.00,60.00,Sunday
7592,-1.3447142570029385
5408,15.839105760188252
7437,0.0
7438,0.0
2,1, 1, 1, 0,20, 0.00,60.00,Sunday
7592,-1.3392582149219424
5408,15.809109385655468
7437,0.0
7438,0.0
2,1, 1, 1, 0,21, 0.00,60.00,Sunday
7592,-1.360974515546485
5408,15.677989437617024
7437,0.0
7438,0.0
2,1, 1, 1, 0,22, 0.00,60.00,Sunday
7592,-1.4014745959852278
5408,15.511890025733843
7437,0.0
7438,0.0
2,1, 1, 1, 0,23, 0.00,60.00,Sunday
7592,-1.0855616053666409
5408,18.091506610434725
7437,1131829.9874729606
7438,0.0
2,1, 1, 1, 0,24, 0.00,60.00,Sunday
7592,-1.003946831120243
5408,18.000000000000026
7437,809771.454205073
7438,0.0
2,2, 1, 2, 0, 1, 0.00,60.00,Monday
7592,-0.9971490779122946
5408,18.0
7437,908593.287586782
7438,0.0
2,2, 1, 2, 0, 2, 0.00,60.00,Monday
7592,-0.993496009090495
5408,17.999999999999994
7437,950053.7986305767
7438,0.0
2,2, 1, 2, 0, 3, 0.00,60.00,Monday
7592,-0.9922830271822747
5408,18.000000000000015
7437,973905.5408485869
7438,0.0
2,2, 1, 2, 0, 4, 0.00,60.00,Monday
7592,-0.9911734461562073
5408,18.000000000000008
7437,992279.8830665248
7438,0.0
2,2, 1, 2, 0, 5, 0.00,60.00,Monday
7592,-0.9902883214916756
5408,17.999999999999994
7437,1011826.0302658249
7438,0.0
2,2, 1, 2, 0, 6, 0.00,60.00,Monday
7592,-0.9896492754345534
5408,18.000000000000005
7437,1034328.4241131963
7438,0.0
2,2, 1, 2, 0, 7, 0.00,60.00,Monday
7592,-0.9890837871769929
5408,18.000000000000033
7437,1051200.3384197653
7438,0.0
2,2, 1, 2, 0, 8, 0.00,60.00,Monday
7592,-0.9892247439361905
5408,18.0
7437,1059189.3512039153
7438,0.0
2,2, 1, 2, 0, 9, 0.00,60.00,Monday
7592,-1.2480711377501695
5408,15.782938179506664
7437,0.0
7438,0.0
2,2, 1, 2, 0,10, 0.00,60.00,Monday
7592,-1.454513845450886
5408,15.170722731552138
7437,0.0
7438,0.0
2,2, 1, 2, 0,11, 0.00,60.00,Monday
7592,-1.48127192466996
5408,15.204160616571633
7437,0.0
7438,0.0
2,2, 1, 2, 0,12, 0.00,60.00,Monday
7592,-1.486114911238153
5408,15.243580517493902
7437,0.0
7438,0.0
2,2, 1, 2, 0,13, 0.00,60.00,Monday
7592,-1.3343528897681898
5408,16.72565918769578
7437,849274.5466815773
7438,0.0
2,2, 1, 2, 0,14, 0.00,60.00,Monday
7592,-1.0345611160459863
5408,18.000000000139037
7437,863461.6444024362
7438,0.0
2,2, 1, 2, 0,15, 0.00,60.00,Monday
7592,-1.2304637791688194
5408,16.067307850560199
7437,0.0
7438,0.0
2,2, 1, 2, 0,16, 0.00,60.00,Monday
7592,-1.3896860688309969
5408,15.598372968645747
7437,0.0
7438,0.0
2,2, 1, 2, 0,17, 0.00,60.00,Monday
7592,-1.4038004631921819
5408,15.59042521542372
7437,0.0
7438,0.0
2,2, 1, 2, 0,18, 0.00,60.00,Monday
7592,-1.419631472265458
5408,15.51877873062316
7437,0.0
7438,0.0
2,2, 1, 2, 0,19, 0.00,60.00,Monday
7592,-1.4447448368326104
5408,15.4031827307589
7437,0.0
7438,0.0
2,2, 1, 2, 0,20, 0.00,60.00,Monday
7592,-1.4675469858931063
5408,15.301328470109146
7437,0.0
7438,0.0
2,2, 1, 2, 0,21, 0.00,60.00,Monday
7592,-1.4856208848555286
5408,15.228758486250074
7437,0.0
7438,0.0
2,2, 1, 2, 0,22, 0.00,60.00,Monday
7592,-1.4941209484506438
5408,15.197003920806902
7437,0.0
7438,0.0
2,2, 1, 2, 0,23, 0.00,60.00,Monday
7592,-1.112920992232537
5408,18.091201736808839
7437,1342035.8291585716
7438,0.0
2,2, 1, 2, 0,24, 0.00,60.00,Monday
7592,-1.0049672547908484
5408,17.999999999999984
7437,933591.3667228934
7438,0.0
2,3, 1, 3, 0, 1, 0.00,60.00,Tuesday
7592,-0.9931937033906269
5408,17.999999999999984
7437,1029910.2453738179
7438,0.0
2,3, 1, 3, 0, 2, 0.00,60.00,Tuesday
7592,-0.9887567881171947
5408,18.00000000000002
7437,1094848.7630678795
7438,0.0
2,3, 1, 3, 0, 3, 0.00,60.00,Tuesday
7592,-0.9900667362112117
5408,18.000000000000019
7437,1161805.2172992409
7438,0.0
2,3, 1, 3, 0, 4, 0.00,60.00,Tuesday
7592,-0.991654927859379
5408,18.000000000000005
7437,1206003.3093154275
7438,0.0
2,3, 1, 3, 0, 5, 0.00,60.00,Tuesday
7592,-0.9928356052383492
5408,18.000000000000044
7437,1225502.9718882796
7438,0.0
2,3, 1, 3, 0, 6, 0.00,60.00,Tuesday
7592,-0.9940394941281521
5408,18.000000000000019
7437,1230212.1083640352
7438,0.0
2,3, 1, 3, 0, 7, 0.00,60.00,Tuesday
7592,-0.9947186141159136
5408,18.000000000000055
7437,1213634.479573211
7438,0.0
2,3, 1, 3, 0, 8, 0.00,60.00,Tuesday
7592,-0.9948289678791462
5408,18.000000000000019
7437,1189459.970593488
7438,0.0
2,3, 1, 3, 0, 9, 0.00,60.00,Tuesday
7592,-1.2751625910469887
5408,15.607266684569004
7437,0.0
7438,0.0
2,3, 1, 3, 0,10, 0.00,60.00,Tuesday
7592,-1.5103499512073536
5408,14.944778771193717
7437,0.0
7438,0.0
2,3, 1, 3, 0,11, 0.00,60.00,Tuesday
7592,-1.5506984404869773
5408,14.918451326002165
7437,0.0
7438,0.0
2,3, 1, 3, 0,12, 0.00,60.00,Tuesday
7592,-1.5696609968975964
5408,14.89609871261831
7437,0.0
7438,0.0
2,3, 1, 3, 0,13, 0.00,60.00,Tuesday
7592,-1.4095139251734346
5408,16.525992625077128
7437,1103338.0242895019
7438,0.0
2,3, 1, 3, 0,14, 0.00,60.00,Tuesday
7592,-1.058670241748912
5408,18.00000000046541
7437,1267007.8738449913
7438,0.0
2,3, 1, 3, 0,15, 0.00,60.00,Tuesday
7592,-1.300665846959869
5408,15.616187821485552
7437,0.0
7438,0.0
2,3, 1, 3, 0,16, 0.00,60.00,Tuesday
7592,-1.5318891604280734
5408,14.916977535764295
7437,0.0
7438,0.0
2,3, 1, 3, 0,17, 0.00,60.00,Tuesday
7592,-1.5680152677001554
5408,14.882362335605102
7437,0.0
7438,0.0
2,3, 1, 3, 0,18, 0.00,60.00,Tuesday
7592,-1.58426901570342
5408,14.844912417552465
7437,0.0
7438,0.0
2,3, 1, 3, 0,19, 0.00,60.00,Tuesday
7592,-1.5891724107777208
5408,14.83181418876638
7437,0.0
7438,0.0
2,3, 1, 3, 0,20, 0.00,60.00,Tuesday
7592,-1.5884450389918604
5408,14.824624230070535
7437,0.0
7438,0.0
2,3, 1, 3, 0,21, 0.00,60.00,Tuesday
7592,-1.5878092645724014
5408,14.813411616491179
7437,0.0
7438,0.0
2,3, 1, 3, 0,22, 0.00,60.00,Tuesday
7592,-1.5868155133568743
5408,14.802947304956165
7437,0.0
7438,0.0
2,3, 1, 3, 0,23, 0.00,60.00,Tuesday
7592,-1.151066044062634
5408,18.09077497729386
7437,1723983.8635603088
7438,0.0
2,3, 1, 3, 0,24, 0.00,60.00,Tuesday
7592,-1.0203976911861812
5408,18.000000000000008
7437,1187190.0437126747
7438,0.0
2,4, 1, 4, 0, 1, 0.00,60.00,Wednesday
7592,-1.0048177105686858
5408,18.000000000000044
7437,1208941.5851250883
7438,0.0
2,4, 1, 4, 0, 2, 0.00,60.00,Wednesday
7592,-0.9984506048208385
5408,17.999999999999984
7437,1201162.5915159577
7438,0.0
2,4, 1, 4, 0, 3, 0.00,60.00,Wednesday
7592,-0.996447082941787
5408,18.000000000000019
7437,1198723.876907182
7438,0.0
2,4, 1, 4, 0, 4, 0.00,60.00,Wednesday
7592,-0.9948754716025565
5408,18.000000000000044
7437,1197991.8705901313
7438,0.0
2,4, 1, 4, 0, 5, 0.00,60.00,Wednesday
7592,-0.9931195796439468
5408,18.000000000000055
7437,1192490.5320718736
7438,0.0
2,4, 1, 4, 0, 6, 0.00,60.00,Wednesday
7592,-0.9914724726059742
5408,17.999999999999998
7437,1192553.4604415608
7438,0.0
2,4, 1, 4, 0, 7, 0.00,60.00,Wednesday
7592,-0.9901692133251588
5408,18.000000000000037
7437,1193278.8841739828
7438,0.0
2,4, 1, 4, 0, 8, 0.00,60.00,Wednesday
7592,-0.9895711844338435
5408,18.000000000000008
7437,1188400.156341515
7438,0.0
2,4, 1, 4, 0, 9, 0.00,60.00,Wednesday
7592,-1.2710700646695468
5408,15.5736219705096
7437,0.0
7438,0.0
2,4, 1, 4, 0,10, 0.00,60.00,Wednesday
7592,-1.5120138393092673
5408,14.8708119317224
7437,0.0
7438,0.0
2,4, 1, 4, 0,11, 0.00,60.00,Wednesday
7592,-1.5534813452925896
5408,14.840718646739198
7437,0.0
7438,0.0
2,4, 1, 4, 0,12, 0.00,60.00,Wednesday
7592,-1.5754364412805882
5408,14.82430507723739
7437,0.0
7438,0.0
2,4, 1, 4, 0,13, 0.00,60.00,Wednesday
7592,-1.4125724368135926
5408,16.50262317036638
7437,1103894.863740753
7438,0.0
2,4, 1, 4, 0,14, 0.00,60.00,Wednesday
7592,-1.0593179950487402
5408,18.000000000430679
7437,1259232.1504707155
7438,0.0
2,4, 1, 4, 0,15, 0.00,60.00,Wednesday
7592,-1.2915320809603459
5408,15.704843294716527
7437,0.0
7438,0.0
2,4, 1, 4, 0,16, 0.00,60.00,Wednesday
7592,-1.5062727367624558
5408,15.07109767905681
7437,0.0
7438,0.0
2,4, 1, 4, 0,17, 0.00,60.00,Wednesday
7592,-1.529906557235553
5408,15.065415039351253
7437,0.0
7438,0.0
2,4, 1, 4, 0,18, 0.00,60.00,Wednesday
7592,-1.545451808793698
5408,15.010532515952285
7437,0.0
7438,0.0
2,4, 1, 4, 0,19, 0.00,60.00,Wednesday
7592,-1.5569774624621958
5408,14.948835260394688
7437,0.0
7438,0.0
2,4, 1, 4, 0,20, 0.00,60.00,Wednesday
7592,-1.5662206697619572
5408,14.887318711158422
7437,0.0
7438,0.0
2,4, 1, 4, 0,21, 0.00,60.00,Wednesday
7592,-1.5763820451782967
5408,14.832649383065539
7437,0.0
7438,0.0
2,4, 1, 4, 0,22, 0.00,60.00,Wednesday
7592,-1.5847811346579653
5408,14.795126863964951
7437,0.0
7438,0.0
2,4, 1, 4, 0,23, 0.00,60.00,Wednesday
7592,-1.1499775947918945
5408,18.09250075797132
7437,1728589.2179676507
7438,0.0
2,4, 1, 4, 0,24, 0.00,60.00,Wednesday
7592,-1.0299856022747287
5408,18.000000000000026
7437,1199013.6682185273
7438,0.0
2,5, 1, 5, 0, 1, 0.00,60.00,Thursday
7592,-1.012127025840525
5408,18.000000000000019
7437,1206230.5783081935
7438,0.0
2,5, 1, 5, 0, 2, 0.00,60.00,Thursday
7592,-1.0067879925491626
5408,18.000000000000008
7437,1184690.367991979
7438,0.0
2,5, 1, 5, 0, 3, 0.00,60.00,Thursday
7592,-1.0064938002054345
5408,18.00000000000003
7437,1178446.9109623305
7438,0.0
2,5, 1, 5, 0, 4, 0.00,60.00,Thursday
7592,-1.008041007691454
5408,18.000000000000019
7437,1186546.0021917299
7438,0.0
2,5, 1, 5, 0, 5, 0.00,60.00,Thursday
7592,-1.010055389851039
5408,18.000000000000033
7437,1200123.7711749406
7438,0.0
2,5, 1, 5, 0, 6, 0.00,60.00,Thursday
7592,-1.0114227511334606
5408,18.0
7437,1215987.9013188976
7438,0.0
2,5, 1, 5, 0, 7, 0.00,60.00,Thursday
7592,-1.012590999003802
5408,18.00000000000002
7437,1233073.4118101022
7438,0.0
2,5, 1, 5, 0, 8, 0.00,60.00,Thursday
7592,-1.014196869900667
5408,18.000000000000005
7437,1244686.831414294
7438,0.0
2,5, 1, 5, 0, 9, 0.00,60.00,Thursday
7592,-1.3009752645203945
5408,15.542391833328282
7437,0.0
7438,0.0
2,5, 1, 5, 0,10, 0.00,60.00,Thursday
7592,-1.5475463894296804
5408,14.832265116748319
7437,0.0
7438,0.0
2,5, 1, 5, 0,11, 0.00,60.00,Thursday
7592,-1.587198042642462
5408,14.807751204662905
7437,0.0
7438,0.0
2,5, 1, 5, 0,12, 0.00,60.00,Thursday
7592,-1.6044602335811862
5408,14.791023785966639
7437,0.0
7438,0.0
2,5, 1, 5, 0,13, 0.00,60.00,Thursday
7592,-1.4362188029366332
5408,16.48184849851997
7437,1143383.3240010406
7438,0.0
2,5, 1, 5, 0,14, 0.00,60.00,Thursday
7592,-1.0705854032377758
5408,18.000000000592235
7437,1323698.2382181988
7438,0.0
2,5, 1, 5, 0,15, 0.00,60.00,Thursday
7592,-1.3082220526462927
5408,15.618177088404428
7437,0.0
7438,0.0
2,5, 1, 5, 0,16, 0.00,60.00,Thursday
7592,-1.5392824804200478
5408,14.923454703595774
7437,0.0
7438,0.0
2,5, 1, 5, 0,17, 0.00,60.00,Thursday
7592,-1.572002566478339
5408,14.915945270863011
7437,0.0
7438,0.0
2,5, 1, 5, 0,18, 0.00,60.00,Thursday
7592,-1.5841208548531756
5408,14.910852226083846
7437,0.0
7438,0.0
2,5, 1, 5, 0,19, 0.00,60.00,Thursday
7592,-1.5885731419436927
5408,14.911876102669837
7437,0.0
7438,0.0
2,5, 1, 5, 0,20, 0.00,60.00,Thursday
7592,-1.5904049859076904
5408,14.904318026916519
7437,0.0
7438,0.0
2,5, 1, 5, 0,21, 0.00,60.00,Thursday
7592,-1.5964872570635092
5408,14.870171608220425
7437,0.0
7438,0.0
2,5, 1, 5, 0,22, 0.00,60.00,Thursday
7592,-1.6066198993678167
5408,14.820230313097407
7437,0.0
7438,0.0
2,5, 1, 5, 0,23, 0.00,60.00,Thursday
7592,-1.1738648513152828
5408,18.09387196385339
7437,1768053.9118898689
7438,0.0
2,5, 1, 5, 0,24, 0.00,60.00,Thursday
7592,-1.0502505356661645
5408,18.00000000000007
7437,1255815.4532560146
7438,0.0
2,6, 1, 6, 0, 1, 0.00,60.00,Friday
7592,-1.0252046901785253
5408,18.00000000000001
7437,1280418.119380589
7438,0.0
2,6, 1, 6, 0, 2, 0.00,60.00,Friday
7592,-1.014493660561243
5408,17.99999999999999
7437,1276868.0618269065
7438,0.0
2,6, 1, 6, 0, 3, 0.00,60.00,Friday
7592,-1.008574483091158
5408,18.000000000000015
7437,1267878.6397839583
7438,0.0
2,6, 1, 6, 0, 4, 0.00,60.00,Friday
7592,-1.0045292091953926
5408,18.00000000000001
7437,1262873.3277304215
7438,0.0
2,6, 1, 6, 0, 5, 0.00,60.00,Friday
7592,-1.0011953917446564
5408,17.999999999999994
7437,1256427.880244923
7438,0.0
2,6, 1, 6, 0, 6, 0.00,60.00,Friday
7592,-0.9984482922005924
5408,18.000000000000044
7437,1246035.3560746937
7438,0.0
2,6, 1, 6, 0, 7, 0.00,60.00,Friday
7592,-0.9967713182981405
5408,18.00000000000004
7437,1239172.9862497249
7438,0.0
2,6, 1, 6, 0, 8, 0.00,60.00,Friday
7592,-0.9971481488726948
5408,18.0
7437,1235853.7189943523
7438,0.0
2,6, 1, 6, 0, 9, 0.00,60.00,Friday
7592,-1.2806813179084465
5408,15.560241733853444
7437,0.0
7438,0.0
2,6, 1, 6, 0,10, 0.00,60.00,Friday
7592,-1.5125742119907857
5408,14.92493035532359
7437,0.0
7438,0.0
2,6, 1, 6, 0,11, 0.00,60.00,Friday
7592,-1.5395470975157289
5408,14.979932208628279
7437,0.0
7438,0.0
2,6, 1, 6, 0,12, 0.00,60.00,Friday
7592,-1.5440848001136998
5408,15.051476770893017
7437,0.0
7438,0.0
2,6, 1, 6, 0,13, 0.00,60.00,Friday
7592,-1.3772382162950286
5408,16.660179841821884
7437,943842.3684874496
7438,0.0
2,6, 1, 6, 0,14, 0.00,60.00,Friday
7592,-1.037650177873824
5408,18.00000000146557
7437,712707.7657131238
7438,0.0
2,6, 1, 6, 0,15, 0.00,60.00,Friday
7592,-1.2282765927290374
5408,16.264501579158595
7437,0.0
7438,0.0
2,6, 1, 6, 0,16, 0.00,60.00,Friday
7592,-1.3809273621307652
5408,15.810507186663772
7437,0.0
7438,0.0
2,6, 1, 6, 0,17, 0.00,60.00,Friday
7592,-1.3835954748445838
5408,15.838508471744098
7437,0.0
7438,0.0
2,6, 1, 6, 0,18, 0.00,60.00,Friday
7592,-1.3702081972928182
5408,15.869632746438436
7437,0.0
7438,0.0
2,6, 1, 6, 0,19, 0.00,60.00,Friday
7592,-1.3903591239133233
5408,15.725518967341849
7437,0.0
7438,0.0
2,6, 1, 6, 0,20, 0.00,60.00,Friday
7592,-1.4148604300487247
5408,15.579168749653903
7437,0.0
7438,0.0
2,6, 1, 6, 0,21, 0.00,60.00,Friday
7592,-1.4332940327501079
5408,15.464337427512107
7437,0.0
7438,0.0
2,6, 1, 6, 0,22, 0.00,60.00,Friday
7592,-1.4500081623510489
5408,15.36651730953627
7437,0.0
7438,0.0
2,6, 1, 6, 0,23, 0.00,60.00,Friday
7592,-1.098746261327635
5408,18.0988994061653
7437,1206348.7392459044
7438,0.0
2,6, 1, 6, 0,24, 0.00,60.00,Friday
7592,-1.0041547676158603
5408,18.000000000000019
7437,849677.0885756009
7438,0.0
2,7, 1, 7, 0, 1, 0.00,60.00,Saturday
7592,-0.9926950195834635
5408,17.999999999999987
7437,925007.8072673568
7438,0.0
2,7, 1, 7, 0, 2, 0.00,60.00,Saturday
7592,-0.9870313282483983
5408,18.000000000000037
7437,962487.181802138
7438,0.0
2,7, 1, 7, 0, 3, 0.00,60.00,Saturday
7592,-0.9861527919068854
5408,18.00000000000001
7437,1016691.0859056971
7438,0.0
2,7, 1, 7, 0, 4, 0.00,60.00,Saturday
7592,-0.9865089149967856
5408,18.00000000000005
7437,1087196.1397844456
7438,0.0
2,7, 1, 7, 0, 5, 0.00,60.00,Saturday
7592,-0.9878381475431709
5408,18.000000000000047
7437,1172887.6120544412
7438,0.0
2,7, 1, 7, 0, 6, 0.00,60.00,Saturday
7592,-0.9897222210734609
5408,18.000000000000019
7437,1256332.867250341
7438,0.0
2,7, 1, 7, 0, 7, 0.00,60.00,Saturday
7592,-0.9916191947642843
5408,17.99999999999999
7437,1325465.084662836
7438,0.0
2,7, 1, 7, 0, 8, 0.00,60.00,Saturday
7592,-0.9933319598315026
5408,18.00000000000005
7437,1369281.917961651
7438,0.0
2,7, 1, 7, 0, 9, 0.00,60.00,Saturday
7592,-1.3012744502356782
5408,15.380033841267406
7437,0.0
7438,0.0
2,7, 1, 7, 0,10, 0.00,60.00,Saturday
7592,-1.553811266804627
5408,14.705356641894023
7437,0.0
7438,0.0
2,7, 1, 7, 0,11, 0.00,60.00,Saturday
7592,-1.5874102618545774
5408,14.751640559186484
7437,0.0
7438,0.0
2,7, 1, 7, 0,12, 0.00,60.00,Saturday
7592,-1.5899446164340268
5408,14.84788452395191
7437,0.0
7438,0.0
2,7, 1, 7, 0,13, 0.00,60.00,Saturday
7592,-1.4033709388009859
5408,16.57383828068579
7437,977664.5217429064
7438,0.0
2,7, 1, 7, 0,14, 0.00,60.00,Saturday
7592,-1.048064809789835
5408,18.000000003877628
7437,797857.9362374398
7438,0.0
2,7, 1, 7, 0,15, 0.00,60.00,Saturday
7592,-1.220114683691049
5408,16.316613129144839
7437,0.0
7438,0.0
2,7, 1, 7, 0,16, 0.00,60.00,Saturday
7592,-1.2614086940175542
5408,16.41376927771178
7437,0.0
7438,0.0
2,7, 1, 7, 0,17, 0.00,60.00,Saturday
7592,-1.2553793715594138
5408,16.42409422532666
7437,0.0
7438,0.0
2,7, 1, 7, 0,18, 0.00,60.00,Saturday
7592,-1.2525906876499425
5408,16.436913122136123
7437,0.0
7438,0.0
2,7, 1, 7, 0,19, 0.00,60.00,Saturday
7592,-1.2894888199903825
5408,16.239389499766813
7437,0.0
7438,0.0
2,7, 1, 7, 0,20, 0.00,60.00,Saturday
7592,-1.3193363291972207
5408,16.092788717376814
7437,0.0
7438,0.0
2,7, 1, 7, 0,21, 0.00,60.00,Saturday
7592,-1.3408870956078077
5408,15.969460844302012
7437,0.0
7438,0.0
2,7, 1, 7, 0,22, 0.00,60.00,Saturday
7592,-1.3610566532858719
5408,15.855994066928013
7437,0.0
7438,0.0
2,7, 1, 7, 0,23, 0.00,60.00,Saturday
7592,-1.0738545586723465
5408,18.103405084829487
7437,840661.858343224
7438,0.0
2,7, 1, 7, 0,24, 0.00,60.00,Saturday
7592,-1.0064205441617314
5408,18.000000000000015
7437,523227.4489337974
7438,0.0
2,8, 1, 8, 0, 1, 0.00,60.00,Sunday
7592,-0.9986024121553844
5408,17.99999999999997
7437,629113.0449738737
7438,0.0
2,8, 1, 8, 0, 2, 0.00,60.00,Sunday
7592,-0.9906479861213212
5408,18.000000000000019
7437,671544.4720466342
7438,0.0
2,8, 1, 8, 0, 3, 0.00,60.00,Sunday
7592,-0.9864090023831222
5408,17.999999999999994
7437,710736.0928248722
7438,0.0
2,8, 1, 8, 0, 4, 0.00,60.00,Sunday
7592,-0.9836271498670697
5408,17.999999999999998
7437,750846.3591304446
7438,0.0
2,8, 1, 8, 0, 5, 0.00,60.00,Sunday
7592,-0.9815810881411422
5408,18.000000000000019
7437,788042.5445625221
7438,0.0
2,8, 1, 8, 0, 6, 0.00,60.00,Sunday
7592,-0.9796597313241655
5408,18.00000000000001
7437,821599.7982677638
7438,0.0
2,8, 1, 8, 0, 7, 0.00,60.00,Sunday
7592,-0.9790612550081752
5408,18.000000000000044
7437,845758.9360253216
7438,0.0
2,8, 1, 8, 0, 8, 0.00,60.00,Sunday
7592,-0.9793673960303603
5408,18.000000000000005
7437,862032.6210561226
7438,0.0
2,8, 1, 8, 0, 9, 0.00,60.00,Sunday
7592,-1.2158173791271978
5408,15.964084472551683
7437,0.0
7438,0.0
2,8, 1, 8, 0,10, 0.00,60.00,Sunday
7592,-1.408096153113138
5408,15.377942494046792
7437,0.0
7438,0.0
2,8, 1, 8, 0,11, 0.00,60.00,Sunday
7592,-1.4321187360241803
5408,15.433835623291094
7437,0.0
7438,0.0
2,8, 1, 8, 0,12, 0.00,60.00,Sunday
7592,-1.4317867347950904
5408,15.506553507601268
7437,0.0
7438,0.0
2,8, 1, 8, 0,13, 0.00,60.00,Sunday
7592,-1.2860162094201476
5408,16.8835112531856
7437,707797.7701923621
7438,0.0
2,8, 1, 8, 0,14, 0.00,60.00,Sunday
7592,-1.0217220101565364
5408,18.000000040356594
7437,513751.1830642947
7438,0.0
2,8, 1, 8, 0,15, 0.00,60.00,Sunday
7592,-1.1759767167056479
5408,16.465719241896147
7437,0.0
7438,0.0
2,8, 1, 8, 0,16, 0.00,60.00,Sunday
7592,-1.2863881888780402
5408,16.161597378638726
7437,0.0
7438,0.0
2,8, 1, 8, 0,17, 0.00,60.00,Sunday
7592,-1.2763142021388388
5408,16.267058209446039
7437,0.0
7438,0.0
2,8, 1, 8, 0,18, 0.00,60.00,Sunday
7592,-1.3009915426595627
5408,16.157132048047776
7437,0.0
7438,0.0
2,8, 1, 8, 0,19, 0.00,60.00,Sunday
7592,-1.3228672575443195
5408,16.039687295479494
7437,0.0
7438,0.0
2,8, 1, 8, 0,20, 0.00,60.00,Sunday
7592,-1.3395617155179583
5408,15.945705641118947
7437,0.0
7438,0.0
2,8, 1, 8, 0,21, 0.00,60.00,Sunday
7592,-1.3536595474911162
5408,15.869258496634709
7437,0.0
7438,0.0
2,8, 1, 8, 0,22, 0.00,60.00,Sunday
7592,-1.3614957780588387
5408,15.820880860294226
7437,0.0
7438,0.0
2,8, 1, 8, 0,23, 0.00,60.00,Sunday
7592,-1.0636058654976406
5408,18.096013504004465
7437,827565.366180182
7438,0.0
2,8, 1, 8, 0,24, 0.00,60.00,Sunday
7592,-0.9916147125583886
5408,18.0
7437,497769.3908476143
7438,0.0
2,9, 1, 9, 0, 1, 0.00,60.00,Monday
7592,-0.9828258277142203
5408,17.999999999999987
7437,616280.2380394109
7438,0.0
2,9, 1, 9, 0, 2, 0.00,60.00,Monday
7592,-0.9766188392842484
5408,17.999999999999998
7437,678538.4143761372
7438,0.0
2,9, 1, 9, 0, 3, 0.00,60.00,Monday
7592,-0.9732194804359136
5408,17.999999999999998
7437,716891.9223160187
7438,0.0
2,9, 1, 9, 0, 4, 0.00,60.00,Monday
7592,-0.9713123947114101
5408,18.000000000000008
7437,733641.8298858195
7438,0.0
2,9, 1, 9, 0, 5, 0.00,60.00,Monday
7592,-0.9699995447947588
5408,18.00000000000001
7437,747229.483034181
7438,0.0
2,9, 1, 9, 0, 6, 0.00,60.00,Monday
7592,-0.9691335861375959
5408,18.000000000000015
7437,762829.4385921821
7438,0.0
2,9, 1, 9, 0, 7, 0.00,60.00,Monday
7592,-0.9692803150259386
5408,17.99999999999999
7437,778246.020653144
7438,0.0
2,9, 1, 9, 0, 8, 0.00,60.00,Monday
7592,-0.9704307805464784
5408,18.00000000000001
7437,791486.7485201097
7438,0.0
2,9, 1, 9, 0, 9, 0.00,60.00,Monday
7592,-1.200125252840549
5408,16.02523281882578
7437,0.0
7438,0.0
2,9, 1, 9, 0,10, 0.00,60.00,Monday
7592,-1.3903812756296279
5408,15.422783692423407
7437,0.0
7438,0.0
2,9, 1, 9, 0,11, 0.00,60.00,Monday
7592,-1.4245891310004593
5408,15.408907141075512
7437,0.0
7438,0.0
2,9, 1, 9, 0,12, 0.00,60.00,Monday
7592,-1.4378014674640339
5408,15.403987764701773
7437,0.0
7438,0.0
2,9, 1, 9, 0,13, 0.00,60.00,Monday
7592,-1.3027335503253566
5408,16.78574018694869
7437,780964.2344177157
7438,0.0
2,9, 1, 9, 0,14, 0.00,60.00,Monday
7592,-1.0222495431934256
5408,18.00000000004808
7437,799967.6155264806
7438,0.0
2,9, 1, 9, 0,15, 0.00,60.00,Monday
7592,-1.2250618371030778
5408,16.042228663377803
7437,0.0
7438,0.0
2,9, 1, 9, 0,16, 0.00,60.00,Monday
7592,-1.3974614377950659
5408,15.509325170931897
7437,0.0
7438,0.0
2,9, 1, 9, 0,17, 0.00,60.00,Monday
7592,-1.4260023321539564
5408,15.46917065041277
7437,0.0
7438,0.0
2,9, 1, 9, 0,18, 0.00,60.00,Monday
7592,-1.4407889280916429
5408,15.432891737238137
7437,0.0
7438,0.0
2,9, 1, 9, 0,19, 0.00,60.00,Monday
7592,-1.4472773923084804
5408,15.416364819477004
7437,0.0
7438,0.0
2,9, 1, 9, 0,20, 0.00,60.00,Monday
7592,-1.4499720458169859
5408,15.401117920276166
7437,0.0
7438,0.0
2,9, 1, 9, 0,21, 0.00,60.00,Monday
7592,-1.4546080724519673
5408,15.380094649753828
7437,0.0
7438,0.0
2,9, 1, 9, 0,22, 0.00,60.00,Monday
7592,-1.4590733844234707
5408,15.362880849305939
7437,0.0
7438,0.0
2,9, 1, 9, 0,23, 0.00,60.00,Monday
7592,-1.1042212334339119
5408,18.092944335821117
7437,1161678.8168146676
7438,0.0
2,9, 1, 9, 0,24, 0.00,60.00,Monday
7592,-1.009034758474073
5408,18.000000000000026
7437,748441.6929758454
7438,0.0
2,10, 1,10, 0, 1, 0.00,60.00,Tuesday
7592,-0.9985187698113668
5408,18.0
7437,786923.0410034896
7438,0.0
2,10, 1,10, 0, 2, 0.00,60.00,Tuesday
7592,-0.9932309344143478
5408,18.000000000000005
7437,784252.4790113865
7438,0.0
2,10, 1,10, 0, 3, 0.00,60.00,Tuesday
7592,-0.9912244996847829
5408,17.99999999999999
7437,783807.7276815994
7438,0.0
2,10, 1,10, 0, 4, 0.00,60.00,Tuesday
7592,-0.9897806721956971
5408,18.00000000000001
7437,787596.6864803867
7438,0.0
2,10, 1,10, 0, 5, 0.00,60.00,Tuesday
7592,-0.9880300544929499
5408,18.000000000000015
7437,792653.8729417756
7438,0.0
2,10, 1,10, 0, 6, 0.00,60.00,Tuesday
7592,-0.9864880661027944
5408,17.999999999999966
7437,805205.7991370019
7438,0.0
2,10, 1,10, 0, 7, 0.00,60.00,Tuesday
7592,-0.9854222105746304
5408,18.000000000000019
7437,817231.9648574449
7438,0.0
2,10, 1,10, 0, 8, 0.00,60.00,Tuesday
7592,-0.9854296217045659
5408,18.000000000000005
7437,822196.5663647445
7438,0.0
2,10, 1,10, 0, 9, 0.00,60.00,Tuesday
7592,-1.2156383951944954
5408,16.000431730626816
7437,0.0
7438,0.0
2,10, 1,10, 0,10, 0.00,60.00,Tuesday
7592,-1.4109494792713562
5408,15.36866509120704
7437,0.0
7438,0.0
2,10, 1,10, 0,11, 0.00,60.00,Tuesday
7592,-1.445951941253069
5408,15.365259582083859
7437,0.0
7438,0.0
2,10, 1,10, 0,12, 0.00,60.00,Tuesday
7592,-1.4569888305289796
5408,15.395830926018972
7437,0.0
7438,0.0
2,10, 1,10, 0,13, 0.00,60.00,Tuesday
7592,-1.3139533069403862
5408,16.81452791294203
7437,733210.5716500325
7438,0.0
2,10, 1,10, 0,14, 0.00,60.00,Tuesday
7592,-1.040811350482821
5408,18.00000000673792
7437,692855.4452680093
7438,0.0
2,10, 1,10, 0,15, 0.00,60.00,Tuesday
7592,-1.2167225284282124
5408,16.26360762935144
7437,0.0
7438,0.0
2,10, 1,10, 0,16, 0.00,60.00,Tuesday
7592,-1.3468111757219373
5408,15.915790994599308
7437,0.0
7438,0.0
2,10, 1,10, 0,17, 0.00,60.00,Tuesday
7592,-1.3381196863302583
5408,15.962342401470066
7437,0.0
7438,0.0
2,10, 1,10, 0,18, 0.00,60.00,Tuesday
7592,-1.3112031676786034
5408,16.04880721890719
7437,0.0
7438,0.0
2,10, 1,10, 0,19, 0.00,60.00,Tuesday
7592,-1.3482392537129389
5408,15.843726177818829
7437,0.0
7438,0.0
2,10, 1,10, 0,20, 0.00,60.00,Tuesday
7592,-1.3788671215748008
5408,15.70065686818747
7437,0.0
7438,0.0
2,10, 1,10, 0,21, 0.00,60.00,Tuesday
7592,-1.3955561289903893
5408,15.618970508129828
7437,0.0
7438,0.0
2,10, 1,10, 0,22, 0.00,60.00,Tuesday
7592,-1.4020694637361742
5408,15.584965088950943
7437,0.0
7438,0.0
2,10, 1,10, 0,23, 0.00,60.00,Tuesday
7592,-1.074527394839203
5408,18.09904736148459
7437,945190.4046771134
7438,0.0
2,10, 1,10, 0,24, 0.00,60.00,Tuesday
7592,-0.9894934603637425
5408,18.000000000000005
7437,648690.6846724125
7438,0.0
2,11, 1,11, 0, 1, 0.00,60.00,Wednesday
7592,-0.981131188856564
5408,17.99999999999999
7437,769869.9323120564
7438,0.0
2,11, 1,11, 0, 2, 0.00,60.00,Wednesday
7592,-0.9790234740433638
5408,18.000000000000008
7437,847098.4047274486
7438,0.0
2,11, 1,11, 0, 3, 0.00,60.00,Wednesday
7592,-0.9800173480793468
5408,18.000000000000005
7437,895883.6221635162
7438,0.0
2,11, 1,11, 0, 4, 0.00,60.00,Wednesday
7592,-0.980565535506379
5408,18.000000000000008
7437,921592.4536346522
7438,0.0
2,11, 1,11, 0, 5, 0.00,60.00,Wednesday
7592,-0.980493630066574
5408,18.000000000000015
7437,947126.3640129501
7438,0.0
2,11, 1,11, 0, 6, 0.00,60.00,Wednesday
7592,-0.9817502267979995
5408,18.00000000000003
7437,979544.9435542458
7438,0.0
2,11, 1,11, 0, 7, 0.00,60.00,Wednesday
7592,-0.9837187485131885
5408,18.0
7437,1011448.9514088853
7438,0.0
2,11, 1,11, 0, 8, 0.00,60.00,Wednesday
7592,-0.9851796315804209
5408,18.00000000000004
7437,1012093.0814447267
7438,0.0
2,11, 1,11, 0, 9, 0.00,60.00,Wednesday
7592,-1.2380424725552797
5408,15.830511449805434
7437,0.0
7438,0.0
2,11, 1,11, 0,10, 0.00,60.00,Wednesday
7592,-1.4377861260334315
5408,15.228875090980777
7437,0.0
7438,0.0
2,11, 1,11, 0,11, 0.00,60.00,Wednesday
7592,-1.4667083011914717
5408,15.241012099321921
7437,0.0
7438,0.0
2,11, 1,11, 0,12, 0.00,60.00,Wednesday
7592,-1.475141333865267
5408,15.245934909993905
7437,0.0
7438,0.0
2,11, 1,11, 0,13, 0.00,60.00,Wednesday
7592,-1.3299064596457227
5408,16.709298158264283
7437,856377.7479778563
7438,0.0
2,11, 1,11, 0,14, 0.00,60.00,Wednesday
7592,-1.0299476489069453
5408,18.000000000279685
7437,934045.7724721578
7438,0.0
2,11, 1,11, 0,15, 0.00,60.00,Wednesday
7592,-1.2470662642678495
5408,15.896214994046323
7437,0.0
7438,0.0
2,11, 1,11, 0,16, 0.00,60.00,Wednesday
7592,-1.4345921783251108
5408,15.32212845542213
7437,0.0
7438,0.0
2,11, 1,11, 0,17, 0.00,60.00,Wednesday
7592,-1.464870805224103
5408,15.287706891110595
7437,0.0
7438,0.0
2,11, 1,11, 0,18, 0.00,60.00,Wednesday
7592,-1.478324213617572
5408,15.261243773114757
7437,0.0
7438,0.0
2,11, 1,11, 0,19, 0.00,60.00,Wednesday
7592,-1.4831038047884465
5408,15.254470537607482
7437,0.0
7438,0.0
2,11, 1,11, 0,20, 0.00,60.00,Wednesday
7592,-1.483747348610059
5408,15.26175422369053
7437,0.0
7438,0.0
2,11, 1,11, 0,21, 0.00,60.00,Wednesday
7592,-1.4832044384500885
5408,15.26900783853337
7437,0.0
7438,0.0
2,11, 1,11, 0,22, 0.00,60.00,Wednesday
7592,-1.4835187478144037
5408,15.273297196676955
7437,0.0
7438,0.0
2,11, 1,11, 0,23, 0.00,60.00,Wednesday
7592,-1.1161788800183859
5408,18.098224862997048
7437,1221466.9764286173
7438,0.0
2,11, 1,11, 0,24, 0.00,60.00,Wednesday
7592,-1.0185974029474585
5408,18.000000000000005
7437,805586.454501089
7438,0.0
2,12, 1,12, 0, 1, 0.00,60.00,Thursday
7592,-1.0095247095474303
5408,17.999999999999987
7437,843798.2073943501