Program Version,EnergyPlus, Version 8.7.0-78a111df4a, YMD=2019.06.21 03:10
1,5,Environment Title[],Latitude[deg],Longitude[deg],Time Zone[],Elevation[m]
2,6,Day of Simulation[],Month[],Day of Month[],DST Indicator[1=yes 0=no],Hour[],StartMinute[],EndMinute[],DayType
3,3,Cumulative Day of Simulation[],Month[],Day of Month[],DST Indicator[1=yes 0=no],DayType  ! When Daily Report Variables Requested
4,2,Cumulative Days of Simulation[],Month[]  ! When Monthly Report Variables Requested
5,1,Cumulative Days of Simulation[] ! When Run Period Report Variables Requested
1929,1,THERMAL ZONE: SPACE 201,Zone Air Temperature [C] !Hourly
2695,1,THERMAL ZONE: SPACE 201 PEOPLE,Zone Thermal Comfort Fanger Model PMV [] !Hourly
3063,1,THERMAL ZONE: SPACE 305 PTHP,Zone Packaged Terminal Heat Pump Total Heating Energy [J] !Hourly
3064,1,THERMAL ZONE: SPACE 305 PTHP,Zone Packaged Terminal Heat Pump Total Cooling Energy [J] !Hourly
End of Data Dictionary
1,ANN HTG 99.6% CONDNS DB,  29.58, 106.47,   8.00, 259.10
2,1, 1,21, 0, 1, 0.00,60.00,WinterDesignDay
2695,-6.493923253007691
1929,18.000065901840867
3063,4651571.681081465
3064,0.0
2,1, 1,21, 0, 2, 0.00,60.00,WinterDesignDay
2695,-6.497837498406462
1929,18.000049818771495
3063,4670630.551431317
3064,0.0
2,1, 1,21, 0, 3, 0.00,60.00,WinterDesignDay
2695,-6.501101822992859
1929,18.00003578176406
3063,4690419.23903193
3064,0.0
2,1, 1,21, 0, 4, 0.00,60.00,WinterDesignDay
2695,-6.503963928330488
1929,18.000030335929528
3063,4708151.113215899
3064,0.0
2,1, 1,21, 0, 5, 0.00,60.00,WinterDesignDay
2695,-6.506682926900294
1929,18.00002391848874
3063,4728335.55412253
3064,0.0
2,1, 1,21, 0, 6, 0.00,60.00,WinterDesignDay
2695,-6.5089370916417279
1929,17.999995930742725
3063,4758648.843878238
3064,0.0
2,1, 1,21, 0, 7, 0.00,60.00,WinterDesignDay
2695,-5.677540318110303
1929,17.999927529774778
3063,4797709.703167462
3064,0.0
2,1, 1,21, 0, 8, 0.00,60.00,WinterDesignDay
2695,-5.674647985351519
1929,17.99983348409711
3063,5184134.743705085
3064,0.0
2,1, 1,21, 0, 9, 0.00,60.00,WinterDesignDay
2695,-5.319475347548225
1929,18.0000989945058
3063,6309135.470466041
3064,0.0
2,1, 1,21, 0,10, 0.00,60.00,WinterDesignDay
2695,-5.3006564096366459
1929,18.00070597785626
3063,7303255.561743647
3064,0.0
2,1, 1,21, 0,11, 0.00,60.00,WinterDesignDay
2695,-5.288768655240403
1929,18.000900050869928
3063,7019914.005741599
3064,0.0
2,1, 1,21, 0,12, 0.00,60.00,WinterDesignDay
2695,-5.281018923472663
1929,18.000927137640415
3063,6833438.760802443
3064,0.0
2,1, 1,21, 0,13, 0.00,60.00,WinterDesignDay
2695,-5.276787345807251
1929,18.00084126231469
3063,6364599.388438268
3064,0.0
2,1, 1,21, 0,14, 0.00,60.00,WinterDesignDay
2695,-5.273173846495262
1929,18.00081740847055
3063,6291417.214237959
3064,0.0
2,1, 1,21, 0,15, 0.00,60.00,WinterDesignDay
2695,-5.2685348860930569
1929,18.000962773750226
3063,6554401.194137109
3064,0.0
2,1, 1,21, 0,16, 0.00,60.00,WinterDesignDay
2695,-5.266700948397591
1929,18.00108999921079
3063,6541808.559085436
3064,0.0
2,1, 1,21, 0,17, 0.00,60.00,WinterDesignDay
2695,-5.267973047606348
1929,18.001148461895278
3063,6599123.09214416
3064,0.0
2,1, 1,21, 0,18, 0.00,60.00,WinterDesignDay
2695,-5.270332608858361
1929,18.001194973227446
3063,6686136.719587376
3064,0.0
2,1, 1,21, 0,19, 0.00,60.00,WinterDesignDay
2695,-5.615550965214822
1929,18.00068334400815
3063,5221253.401807288
3064,0.0
2,1, 1,21, 0,20, 0.00,60.00,WinterDesignDay
2695,-5.631120117696888
1929,18.000359405128888
3063,5397751.8385714939
3064,0.0
2,1, 1,21, 0,21, 0.00,60.00,WinterDesignDay
2695,-5.641433929954616
1929,18.000188996266016
3063,4568496.568304
3064,0.0
2,1, 1,21, 0,22, 0.00,60.00,WinterDesignDay
2695,-5.6494502789646339
1929,18.000115335922595
3063,4612362.157628884
3064,0.0
2,1, 1,21, 0,23, 0.00,60.00,WinterDesignDay
2695,-5.65509831605732
1929,18.000087719742557
3063,4633127.6270799
3064,0.0
2,1, 1,21, 0,24, 0.00,60.00,WinterDesignDay
2695,-5.659688896713779
1929,18.000075290345568
3063,4646772.533419249
3064,0.0
1,ANN CLG 4% CONDNS DB =>MWB,  29.58, 106.47,   8.00, 259.10
2,1, 7,21, 0, 1, 0.00,60.00,SummerDesignDay
2695,-3.1531323236684
1929,25.999759798970783
3063,0.0
3064,880349.6983049789
2,1, 7,21, 0, 2, 0.00,60.00,SummerDesignDay
2695,-3.1633782730169606
1929,25.999831091779254
3063,0.0
3064,847894.3690492584
2,1, 7,21, 0, 3, 0.00,60.00,SummerDesignDay
2695,-3.1713198799703905
1929,25.999879999080645
3063,0.0
3064,820759.3442824582
2,1, 7,21, 0, 4, 0.00,60.00,SummerDesignDay
2695,-3.177786352537824
1929,25.999910605107407
3063,0.0
3064,797385.8223753092
2,1, 7,21, 0, 5, 0.00,60.00,SummerDesignDay
2695,-3.1833754472452009
1929,25.999932116729299
3063,0.0
3064,775176.0948058674
2,1, 7,21, 0, 6, 0.00,60.00,SummerDesignDay
2695,-3.1882281030333634
1929,25.999961231675287
3063,0.0
3064,749831.9844184287
2,1, 7,21, 0, 7, 0.00,60.00,SummerDesignDay
2695,-3.891528171440859
1929,25.99999660853374
3063,0.0
3064,719735.1859950957
2,1, 7,21, 0, 8, 0.00,60.00,SummerDesignDay
2695,-3.868572924463752
1929,25.999681762329958
3063,0.0
3064,1124648.6806739697
2,1, 7,21, 0, 9, 0.00,60.00,SummerDesignDay
2695,-3.8104087139439897
1929,25.996907821812426
3063,0.0
3064,3786688.9051534666
2,1, 7,21, 0,10, 0.00,60.00,SummerDesignDay
2695,-3.6599654839612909
1929,26.581133318730506
3063,0.0
3064,6869532.417210375
2,1, 7,21, 0,11, 0.00,60.00,SummerDesignDay
2695,-3.5469349268066709
1929,26.984627651062494
3063,0.0
3064,6972647.181674198
2,1, 7,21, 0,12, 0.00,60.00,SummerDesignDay
2695,-3.47694538282137
1929,27.286078223058426
3063,0.0
3064,6913280.130232533
2,1, 7,21, 0,13, 0.00,60.00,SummerDesignDay
2695,-3.5137531747251544
1929,26.96370098496915
3063,0.0
3064,6568453.85779324
2,1, 7,21, 0,14, 0.00,60.00,SummerDesignDay
2695,-3.520270263178609
1929,27.019393177721658
3063,0.0
3064,6329358.501732751
2,1, 7,21, 0,15, 0.00,60.00,SummerDesignDay
2695,-3.410215481919885
1929,27.628724971859655
3063,0.0
3064,6660071.091607325
2,1, 7,21, 0,16, 0.00,60.00,SummerDesignDay
2695,-3.3647251049516759
1929,27.675094188171547
3063,0.0
3064,6920075.557754924
2,1, 7,21, 0,17, 0.00,60.00,SummerDesignDay
2695,-3.3803314005732889
1929,27.55229449531171
3063,0.0
3064,7013252.632109096
2,1, 7,21, 0,18, 0.00,60.00,SummerDesignDay
2695,-3.4072756456137109
1929,27.37778524564205
3063,0.0
3064,7108301.438345765
2,1, 7,21, 0,19, 0.00,60.00,SummerDesignDay
2695,-3.5812364139882155
1929,26.047499555909537
3063,0.0
3064,4159099.532430226
2,1, 7,21, 0,20, 0.00,60.00,SummerDesignDay
2695,-3.6914231183277357
1929,25.997020851880664
3063,0.0
3064,3389860.758802752
2,1, 7,21, 0,21, 0.00,60.00,SummerDesignDay
2695,-3.7255033743365817
1929,25.99858562100869
3063,0.0
3064,1360420.9526197368
2,1, 7,21, 0,22, 0.00,60.00,SummerDesignDay
2695,-3.7775628627701627
1929,25.99917318828062
3063,0.0
3064,1133036.3792570299
2,1, 7,21, 0,23, 0.00,60.00,SummerDesignDay
2695,-3.8088979441802275
1929,25.99947589667885
3063,0.0
3064,1018493.290758437
2,1, 7,21, 0,24, 0.00,60.00,SummerDesignDay
2695,-3.829440577847716
1929,25.999660292676638
3063,0.0
3064,948495.5122177831
1,RUN PERIOD 1,  29.58, 106.47,   8.00, 259.10
2,1, 1, 1, 0, 1, 0.00,60.00,Holiday
2695,-6.116947168287953
1929,18.00020426507319
3063,1712121.206403311
3064,0.0
2,1, 1, 1, 0, 2, 0.00,60.00,Holiday
2695,-6.120170272681005
1929,18.000079976150315
3063,1739795.388648596
3064,0.0
2,1, 1, 1, 0, 3, 0.00,60.00,Holiday
2695,-6.12180793440976
1929,18.000056009179006
3063,1744000.7102265116
3064,0.0
2,1, 1, 1, 0, 4, 0.00,60.00,Holiday
2695,-6.123643267379599
1929,18.000074588471173
3063,1742869.188186493
3064,0.0
2,1, 1, 1, 0, 5, 0.00,60.00,Holiday
2695,-6.126838154535705
1929,18.000128197039989
3063,1737462.20498289
3064,0.0
2,1, 1, 1, 0, 6, 0.00,60.00,Holiday
2695,-6.133708004266218
1929,18.000164513332643
3063,1677376.1668283977
3064,0.0
2,1, 1, 1, 0, 7, 0.00,60.00,Holiday
2695,-6.540065920172851
1929,18.000124005390594
3063,1724271.7839031653
3064,0.0
2,1, 1, 1, 0, 8, 0.00,60.00,Holiday
2695,-6.549238575421757
1929,18.000079948116455
3063,1784379.128888707
3064,0.0
2,1, 1, 1, 0, 9, 0.00,60.00,Holiday
2695,-6.055271651926419
1929,18.000040272310718
3063,1843606.013828014
3064,0.0
2,1, 1, 1, 0,10, 0.00,60.00,Holiday
2695,-6.058092803698822
1929,18.000008993449815
3063,1907142.1477978596
3064,0.0
2,1, 1, 1, 0,11, 0.00,60.00,Holiday
2695,-6.059012027670661
1929,18.000005587443796
3063,1949684.712239039
3064,0.0
2,1, 1, 1, 0,12, 0.00,60.00,Holiday
2695,-6.0596713980445859
1929,18.00000228019901
3063,1971057.0424057597
3064,0.0
2,1, 1, 1, 0,13, 0.00,60.00,Holiday
2695,-6.060438739629809
1929,18.000000669451546
3063,2013250.9447515989
3064,0.0
2,1, 1, 1, 0,14, 0.00,60.00,Holiday
2695,-6.059204627859302
1929,18.000000554910924
3063,2053041.1664108583
3064,0.0
2,1, 1, 1, 0,15, 0.00,60.00,Holiday
2695,-6.055626275206605
1929,18.00000044723946
3063,2077537.1908819299
3064,0.0
2,1, 1, 1, 0,16, 0.00,60.00,Holiday
2695,-6.0495544462977339
1929,18.000000348447946
3063,2089167.4909793956
3064,0.0
2,1, 1, 1, 0,17, 0.00,60.00,Holiday
2695,-6.040913062973144
1929,18.00000027208185
3063,2085406.1313006762
3064,0.0
2,1, 1, 1, 0,18, 0.00,60.00,Holiday
2695,-6.030128828177264
1929,18.000000224531737
3063,2060172.8216300756
3064,0.0
2,1, 1, 1, 0,19, 0.00,60.00,Holiday
2695,-6.511999016451683
1929,18.000000199075989
3063,2010945.5374149515
3064,0.0
2,1, 1, 1, 0,20, 0.00,60.00,Holiday
2695,-6.499373075214784
1929,18.000000202707768
3063,1921310.7614409342
3064,0.0
2,1, 1, 1, 0,21, 0.00,60.00,Holiday
2695,-6.492219963339559
1929,18.000051467843784
3063,1808115.9683635079
3064,0.0
2,1, 1, 1, 0,22, 0.00,60.00,Holiday
2695,-6.492379314872451
1929,18.000281403673609
3063,1722877.0133810032
3064,0.0
2,1, 1, 1, 0,23, 0.00,60.00,Holiday
2695,-6.497714216654614
1929,18.000375805866388
3063,1684628.4444680303
3064,0.0
2,1, 1, 1, 0,24, 0.00,60.00,Holiday
2695,-6.505104884023126
1929,18.000368995562654
3063,1675420.1682311653
3064,0.0
2,2, 1, 2, 0, 1, 0.00,60.00,Holiday
2695,-6.512098118468099
1929,18.000337223451309
3063,1675694.811035189
3064,0.0
2,2, 1, 2, 0, 2, 0.00,60.00,Holiday
2695,-6.519166537731837
1929,18.000276617375694
3063,1689598.1447302746
3064,0.0
2,2, 1, 2, 0, 3, 0.00,60.00,Holiday
2695,-6.5256233988778409
1929,18.000201118632885
3063,1712470.9301065629
3064,0.0
2,2, 1, 2, 0, 4, 0.00,60.00,Holiday
2695,-6.530690670103108
1929,18.00014231981616
3063,1734744.784485846
3064,0.0
2,2, 1, 2, 0, 5, 0.00,60.00,Holiday
2695,-6.534819246542429
1929,18.00010292753117
3063,1756811.5628407826
3064,0.0
2,2, 1, 2, 0, 6, 0.00,60.00,Holiday
2695,-6.5384162704036579
1929,18.00007669478296
3063,1780641.4665992298
3064,0.0
2,2, 1, 2, 0, 7, 0.00,60.00,Holiday
2695,-6.6421324846511109
1929,18.000065902201674
3063,1804278.3580505606
3064,0.0
2,2, 1, 2, 0, 8, 0.00,60.00,Holiday
2695,-6.645474050762974
1929,18.00005087524112
3063,1833352.5419023419
3064,0.0
2,2, 1, 2, 0, 9, 0.00,60.00,Holiday
2695,-6.131145074453946
1929,18.000004845171945
3063,1883215.5666336844
3064,0.0
2,2, 1, 2, 0,10, 0.00,60.00,Holiday
2695,-6.131349115101934
1929,18.000000530274986
3063,1937254.4592282745
3064,0.0
2,2, 1, 2, 0,11, 0.00,60.00,Holiday
2695,-6.129979293646623
1929,18.000000472299715
3063,1961147.4141053467
3064,0.0
2,2, 1, 2, 0,12, 0.00,60.00,Holiday
2695,-6.128984481050417
1929,18.000000430578348
3063,1979818.2246407404
3064,0.0
2,2, 1, 2, 0,13, 0.00,60.00,Holiday
2695,-6.12808066036349
1929,18.00000039753486
3063,1996738.7001661943
3064,0.0
2,2, 1, 2, 0,14, 0.00,60.00,Holiday
2695,-6.126963785466155
1929,18.000000360724149
3063,2009909.968349505
3064,0.0
2,2, 1, 2, 0,15, 0.00,60.00,Holiday
2695,-6.124680201733148
1929,18.000000313343639
3063,2025259.466676231
3064,0.0
2,2, 1, 2, 0,16, 0.00,60.00,Holiday
2695,-6.120050807346569
1929,18.000000269671277
3063,2028327.7196863946
3064,0.0
2,2, 1, 2, 0,17, 0.00,60.00,Holiday
2695,-6.113585663158365
1929,18.00000025622388
3063,1981409.8374810864
3064,0.0
2,2, 1, 2, 0,18, 0.00,60.00,Holiday
2695,-6.108237674186537
1929,18.000000271570057
3063,1905636.900048369
3064,0.0
2,2, 1, 2, 0,19, 0.00,60.00,Holiday
2695,-6.6171723239617858
1929,18.000022290646116
3063,1837669.7054252793
3064,0.0
2,2, 1, 2, 0,20, 0.00,60.00,Holiday
2695,-6.615290129931192
1929,18.000091563876315
3063,1781678.3936045664
3064,0.0
2,2, 1, 2, 0,21, 0.00,60.00,Holiday
2695,-6.614939061810818
1929,18.000089499730384
3063,1751988.3358810875
3064,0.0
2,2, 1, 2, 0,22, 0.00,60.00,Holiday
2695,-6.614467040614817
1929,18.000020507562846
3063,1749270.7656764375
3064,0.0
2,2, 1, 2, 0,23, 0.00,60.00,Holiday
2695,-6.612946981281554
1929,18.000000373328097
3063,1743199.3625859358
3064,0.0
2,2, 1, 2, 0,24, 0.00,60.00,Holiday
2695,-6.612014821892212
1929,18.00004193468109
3063,1718967.918253141
3064,0.0
2,3, 1, 3, 0, 1, 0.00,60.00,Holiday
2695,-6.613854436109349
1929,18.00011220618833
3063,1701638.209151944
3064,0.0
2,3, 1, 3, 0, 2, 0.00,60.00,Holiday
2695,-6.618065498211572
1929,18.000203569557994
3063,1681682.5563817998
3064,0.0
2,3, 1, 3, 0, 3, 0.00,60.00,Holiday
2695,-6.625749971543958
1929,18.000244286737389
3063,1635112.5900129919
3064,0.0
2,3, 1, 3, 0, 4, 0.00,60.00,Holiday
2695,-6.639002872003314
1929,18.00015899792546
3063,1674859.9115631437
3064,0.0
2,3, 1, 3, 0, 5, 0.00,60.00,Holiday
2695,-6.648659099170318
1929,18.00008273041509
3063,1750640.8758095389
3064,0.0
2,3, 1, 3, 0, 6, 0.00,60.00,Holiday
2695,-6.654322610042178
1929,18.000040819358124
3063,1802001.2246281964
3064,0.0
2,3, 1, 3, 0, 7, 0.00,60.00,Holiday
2695,-6.559769527344691
1929,18.00000756625055
3063,1870845.5330017433
3064,0.0
2,3, 1, 3, 0, 8, 0.00,60.00,Holiday
2695,-6.5602658154523019
1929,18.000003602020866
3063,1895305.3693671614
3064,0.0
2,3, 1, 3, 0, 9, 0.00,60.00,Holiday
2695,-6.060296186419215
1929,18.00000070368429
3063,1926897.8927805322
3064,0.0
2,3, 1, 3, 0,10, 0.00,60.00,Holiday
2695,-6.061072030731645
1929,18.000000659662239
3063,1960771.5764240947
3064,0.0
2,3, 1, 3, 0,11, 0.00,60.00,Holiday
2695,-6.0620444112327409
1929,18.000000626438
3063,1995817.8863150194
3064,0.0
2,3, 1, 3, 0,12, 0.00,60.00,Holiday
2695,-6.062968591521204
1929,18.000000595746653
3063,2027838.3326129923
3064,0.0
2,3, 1, 3, 0,13, 0.00,60.00,Holiday
2695,-6.064149617614987
1929,18.00000057438762
3063,2058280.216183182
3064,0.0
2,3, 1, 3, 0,14, 0.00,60.00,Holiday
2695,-6.065358518073837
1929,18.000000558856056
3063,2088768.2529397885
3064,0.0
2,3, 1, 3, 0,15, 0.00,60.00,Holiday
2695,-6.0664097728716339
1929,18.000000550067637
3063,2118712.986970827
3064,0.0
2,3, 1, 3, 0,16, 0.00,60.00,Holiday
2695,-6.067068401640973
1929,18.000000545657739
3063,2145273.0340597319
3064,0.0
2,3, 1, 3, 0,17, 0.00,60.00,Holiday
2695,-6.067224252572498
1929,18.000000540337728
3063,2173641.8319546359
3064,0.0
2,3, 1, 3, 0,18, 0.00,60.00,Holiday
2695,-6.066527734712061
1929,18.00000054101331
3063,2194363.388257947
3064,0.0
2,3, 1, 3, 0,19, 0.00,60.00,Holiday
2695,-6.568440817700357
1929,18.000000539129478
3063,2211180.467156666
3064,0.0
2,3, 1, 3, 0,20, 0.00,60.00,Holiday
2695,-6.566354755448951
1929,18.000000545056449
3063,2224053.1912324137
3064,0.0
2,3, 1, 3, 0,21, 0.00,60.00,Holiday
2695,-6.5639087733590719
1929,18.000000553906927
3063,2230220.4129242028
3064,0.0
2,3, 1, 3, 0,22, 0.00,60.00,Holiday
2695,-6.561650805728763
1929,18.000000564643498
3063,2231031.3025531459
3064,0.0
2,3, 1, 3, 0,23, 0.00,60.00,Holiday
2695,-6.56002442329607
1929,18.000000580976459
3063,2232970.279997624
3064,0.0
2,3, 1, 3, 0,24, 0.00,60.00,Holiday
2695,-6.559077273328562
1929,18.000000597789194
3063,2230711.2305768469
3064,0.0
2,4, 1, 4, 0, 1, 0.00,60.00,Wednesday
2695,-6.559127711998492
1929,18.00000061517397
3063,2237011.2945310038
3064,0.0
2,4, 1, 4, 0, 2, 0.00,60.00,Wednesday
2695,-6.5594483236694229
1929,18.00000192122987
3063,2241301.7165876377
3064,0.0
2,4, 1, 4, 0, 3, 0.00,60.00,Wednesday
2695,-6.560290680336428
1929,18.000001382686525
3063,2250946.635984422
3064,0.0
2,4, 1, 4, 0, 4, 0.00,60.00,Wednesday
2695,-6.560988837218063
1929,18.000000670735699
3063,2264271.071062745
3064,0.0
2,4, 1, 4, 0, 5, 0.00,60.00,Wednesday
2695,-6.56131627447952
1929,18.00000068157533
3063,2280197.747831798
3064,0.0
2,4, 1, 4, 0, 6, 0.00,60.00,Wednesday
2695,-6.561084942803354
1929,18.000000695064985
3063,2290794.4473281858
3064,0.0
2,4, 1, 4, 0, 7, 0.00,60.00,Wednesday
2695,-6.690463196420386
1929,18.000000706489
3063,2296129.0798237605
3064,0.0
2,4, 1, 4, 0, 8, 0.00,60.00,Wednesday
2695,-6.6889109272026199
1929,18.00002532832727
3063,2292370.5024353226
3064,0.0
2,4, 1, 4, 0, 9, 0.00,60.00,Wednesday
2695,-6.152318650373488
1929,18.000205595951319
3063,2201415.9956844395
3064,0.0
2,4, 1, 4, 0,10, 0.00,60.00,Wednesday
2695,-6.13482081825223
1929,18.000420192986679
3063,2046706.9468917717
3064,0.0
2,4, 1, 4, 0,11, 0.00,60.00,Wednesday
2695,-6.128817827167558
1929,18.000510353403496
3063,1959171.23430701
3064,0.0
2,4, 1, 4, 0,12, 0.00,60.00,Wednesday
2695,-6.129758759772694
1929,18.000489614263029
3063,1899280.667710987
3064,0.0
2,4, 1, 4, 0,13, 0.00,60.00,Wednesday
2695,-6.1315704334172349
1929,18.00047552867099
3063,1864190.574503294
3064,0.0
2,4, 1, 4, 0,14, 0.00,60.00,Wednesday
2695,-6.132173470528996
1929,18.000411438523299
3063,1779012.7141811108
3064,0.0
2,4, 1, 4, 0,15, 0.00,60.00,Wednesday
2695,-6.126729409439547
1929,18.00029285194441
3063,1573659.2114498167
3064,0.0
2,4, 1, 4, 0,16, 0.00,60.00,Wednesday
2695,-6.116219378091954
1929,18.000224793422487
3063,1406074.6992629744
3064,0.0
2,4, 1, 4, 0,17, 0.00,60.00,Wednesday
2695,-6.105526075598835
1929,18.000223468760934
3063,1319021.8075741928
3064,0.0
2,4, 1, 4, 0,18, 0.00,60.00,Wednesday
2695,-6.099624034585626
1929,18.000247707364527
3063,1321880.5816456592
3064,0.0
2,4, 1, 4, 0,19, 0.00,60.00,Wednesday
2695,-6.619320774380971
1929,18.000403371061514
3063,1793499.2285093885
3064,0.0
2,4, 1, 4, 0,20, 0.00,60.00,Wednesday
2695,-6.631476661875646
1929,18.00027525553157
3063,1854559.4043649899
3064,0.0
2,4, 1, 4, 0,21, 0.00,60.00,Wednesday
2695,-6.640204125414949
1929,18.00025541402559
3063,1976256.887274223
3064,0.0
2,4, 1, 4, 0,22, 0.00,60.00,Wednesday
2695,-6.646969313467515
1929,18.00019250825296
3063,1992174.19417666
3064,0.0
2,4, 1, 4, 0,23, 0.00,60.00,Wednesday
2695,-6.65205197233844
1929,18.00014775649339
3063,2000012.042804184
3064,0.0
2,4, 1, 4, 0,24, 0.00,60.00,Wednesday
2695,-6.65637433772658
1929,18.000131258817
3063,2002782.4623739955
3064,0.0
2,5, 1, 5, 0, 1, 0.00,60.00,Thursday
2695,-6.661055716855503
1929,18.000118559809523
3063,2009239.7771282732
3064,0.0
2,5, 1, 5, 0, 2, 0.00,60.00,Thursday
2695,-6.665376189143355
1929,18.00011263576844
3063,2016795.6921110247
3064,0.0
2,5, 1, 5, 0, 3, 0.00,60.00,Thursday
2695,-6.669398402939652
1929,18.000127114506858
3063,2020968.871013131
3064,0.0
2,5, 1, 5, 0, 4, 0.00,60.00,Thursday
2695,-6.674017323773359
1929,18.00015849709896
3063,2022582.9109832757
3064,0.0
2,5, 1, 5, 0, 5, 0.00,60.00,Thursday
2695,-6.679382300767611
1929,18.00016374374226
3063,2033734.5107043095
3064,0.0
2,5, 1, 5, 0, 6, 0.00,60.00,Thursday
2695,-6.68467724794235
1929,18.000150902206639
3063,2049183.1595397825
3064,0.0
2,5, 1, 5, 0, 7, 0.00,60.00,Thursday
2695,-6.701455716892003
1929,18.000163115855157
3063,2055488.9493572906
3064,0.0
2,5, 1, 5, 0, 8, 0.00,60.00,Thursday
2695,-6.705549660449719
1929,18.00015561783553
3063,2067923.7616606432
3064,0.0
2,5, 1, 5, 0, 9, 0.00,60.00,Thursday
2695,-6.170531112122923
1929,18.000226054289845
3063,2001213.911551511
3064,0.0
2,5, 1, 5, 0,10, 0.00,60.00,Thursday
2695,-6.153125972229156
1929,18.00036575650486
3063,1859669.3854698754
3064,0.0
2,5, 1, 5, 0,11, 0.00,60.00,Thursday
2695,-6.143449407910295
1929,18.00042271847078
3063,1767322.2516319387
3064,0.0
2,5, 1, 5, 0,12, 0.00,60.00,Thursday
2695,-6.139597644444557
1929,18.000415942103627
3063,1705045.325621753
3064,0.0
2,5, 1, 5, 0,13, 0.00,60.00,Thursday
2695,-6.137648836664575
1929,18.000390234413776
3063,1685247.897808111
3064,0.0
2,5, 1, 5, 0,14, 0.00,60.00,Thursday
2695,-6.133660578018007
1929,18.00036424922041
3063,1622247.584732808
3064,0.0
2,5, 1, 5, 0,15, 0.00,60.00,Thursday
2695,-6.128053951215482
1929,18.000320374454704
3063,1486347.5638980938
3064,0.0
2,5, 1, 5, 0,16, 0.00,60.00,Thursday
2695,-6.122838307732998
1929,18.00029520908445
3063,1392819.6162293426
3064,0.0
2,5, 1, 5, 0,17, 0.00,60.00,Thursday
2695,-6.118187512553303
1929,18.000262637074937
3063,1299683.8007463213
3064,0.0
2,5, 1, 5, 0,18, 0.00,60.00,Thursday
2695,-6.1137336494879099
1929,18.00023727588014
3063,1214743.5543537364
3064,0.0
2,5, 1, 5, 0,19, 0.00,60.00,Thursday
2695,-6.6361395007153229
1929,18.00037597504411
3063,1615051.916362874
3064,0.0
2,5, 1, 5, 0,20, 0.00,60.00,Thursday
2695,-6.648772642339279
1929,18.000259031420958
3063,1652860.3735019509
3064,0.0
2,5, 1, 5, 0,21, 0.00,60.00,Thursday
2695,-6.658101547669779
1929,18.000267975897004
3063,1822778.8178245859
3064,0.0
2,5, 1, 5, 0,22, 0.00,60.00,Thursday
2695,-6.665693768737099
1929,18.00023472166135
3063,1838222.4526366648
3064,0.0
2,5, 1, 5, 0,23, 0.00,60.00,Thursday
2695,-6.672217750520164
1929,18.00018663215359
3063,1854980.755394781
3064,0.0
2,5, 1, 5, 0,24, 0.00,60.00,Thursday
2695,-6.677286481319917
1929,18.000092509317026
3063,1884745.2453692556
3064,0.0
2,6, 1, 6, 0, 1, 0.00,60.00,Friday
2695,-6.67969843522868
1929,18.000037938080739
3063,1901285.808647018
3064,0.0
2,6, 1, 6, 0, 2, 0.00,60.00,Friday
2695,-6.681235969994074
1929,18.000004684714587
3063,1919574.856799407
3064,0.0
2,6, 1, 6, 0, 3, 0.00,60.00,Friday
2695,-6.681719672783648
1929,18.000000503825054
3063,1939785.9026679714
3064,0.0
2,6, 1, 6, 0, 4, 0.00,60.00,Friday
2695,-6.6812495325471
1929,18.000000521509667
3063,1955790.8509992203
3064,0.0
2,6, 1, 6, 0, 5, 0.00,60.00,Friday
2695,-6.680267870587507
1929,18.000000532983579
3063,1968774.117739269
3064,0.0
2,6, 1, 6, 0, 6, 0.00,60.00,Friday
2695,-6.679164290431299
1929,18.000000539539035
3063,1981453.786779048
3064,0.0
2,6, 1, 6, 0, 7, 0.00,60.00,Friday
2695,-6.675418965845684
1929,18.00000054619336
3063,1982951.9227482372
3064,0.0
2,6, 1, 6, 0, 8, 0.00,60.00,Friday
2695,-6.674030195324408
1929,18.00001927368871
3063,1977653.4039346749
3064,0.0
2,6, 1, 6, 0, 9, 0.00,60.00,Friday
2695,-6.140519578651567
1929,18.000166865126518
3063,1857655.989125823
3064,0.0
2,6, 1, 6, 0,10, 0.00,60.00,Friday
2695,-6.1212614329340939
1929,18.0002969092471
3063,1578955.9236106354
3064,0.0
2,6, 1, 6, 0,11, 0.00,60.00,Friday
2695,-6.112339768541094
1929,18.00030614635841
3063,1388435.6001162264
3064,0.0
2,6, 1, 6, 0,12, 0.00,60.00,Friday
2695,-6.109720603244695
1929,18.000238970380314
3063,1223814.424896956
3064,0.0
2,6, 1, 6, 0,13, 0.00,60.00,Friday
2695,-6.107839695231257
1929,18.00020929042929
3063,1152037.0070381717
3064,0.0
2,6, 1, 6, 0,14, 0.00,60.00,Friday
2695,-6.104244069057806
1929,18.00018063725908
3063,967436.1914798864
3064,0.0
2,6, 1, 6, 0,15, 0.00,60.00,Friday
2695,-6.074042275930218
1929,18.16244620847692
3063,539026.4049741398
3064,0.0
2,6, 1, 6, 0,16, 0.00,60.00,Friday
2695,-6.008186390715001
1929,18.429400528735994
3063,245124.61970901906
3064,0.0
2,6, 1, 6, 0,17, 0.00,60.00,Friday
2695,-5.954986667043815
1929,18.5733189621939
3063,96462.75122257418
3064,0.0
2,6, 1, 6, 0,18, 0.00,60.00,Friday
2695,-5.933375025659978
1929,18.580200329458824
3063,90287.16751751804
3064,0.0
2,6, 1, 6, 0,19, 0.00,60.00,Friday
2695,-6.50122301865148
1929,18.02544328010246
3063,1031424.050931666
3064,0.0
2,6, 1, 6, 0,20, 0.00,60.00,Friday
2695,-6.533904891213443
1929,18.000147646163236
3063,1040904.722805883
3064,0.0
2,6, 1, 6, 0,21, 0.00,60.00,Friday
2695,-6.538456476431591
1929,18.000231348824799
3063,1324380.2741754654
3064,0.0
2,6, 1, 6, 0,22, 0.00,60.00,Friday
2695,-6.54028558089399
1929,18.000198351034898
3063,1299997.2136804639
3064,0.0
2,6, 1, 6, 0,23, 0.00,60.00,Friday
2695,-6.542269795012861
1929,18.000188959497057
3063,1277257.9326769277
3064,0.0
2,6, 1, 6, 0,24, 0.00,60.00,Friday
2695,-6.545265550045378
1929,18.000190093322606
3063,1262352.0910627056
3064,0.0
2,7, 1, 7, 0, 1, 0.00,60.00,Saturday
2695,-6.549435480717299
1929,18.000182383909907
3063,1259915.457699122
3064,0.0
2,7, 1, 7, 0, 2, 0.00,60.00,Saturday
2695,-6.554337777841142
1929,18.00018719763804
3063,1261368.6099636025
3064,0.0
2,7, 1, 7, 0, 3, 0.00,60.00,Saturday
2695,-6.560216848914
1929,18.000204555648009
3063,1265573.8802664038
3064,0.0
2,7, 1, 7, 0, 4, 0.00,60.00,Saturday
2695,-6.567412556586369
1929,18.000227992024187
3063,1272715.3279104045
3064,0.0
2,7, 1, 7, 0, 5, 0.00,60.00,Saturday
2695,-6.576176329941852
1929,18.000257955505217
3063,1259925.0558275784
3064,0.0
2,7, 1, 7, 0, 6, 0.00,60.00,Saturday
2695,-6.59223165393891
1929,18.000230625588264
3063,1213898.9361780764
3064,0.0
2,7, 1, 7, 0, 7, 0.00,60.00,Saturday
2695,-6.404986130737729
1929,18.00015950614429
3063,1292998.7280087206
3064,0.0
2,7, 1, 7, 0, 8, 0.00,60.00,Saturday
2695,-6.419640413662978
1929,18.000098572552525
3063,1372320.5048130807
3064,0.0
2,7, 1, 7, 0, 9, 0.00,60.00,Saturday
2695,-5.953532567275104
1929,18.000060823209038
3063,1435540.1574212183
3064,0.0
2,7, 1, 7, 0,10, 0.00,60.00,Saturday
2695,-5.9600410980854969
1929,18.000046592327015
3063,1486037.0975713083
3064,0.0
2,7, 1, 7, 0,11, 0.00,60.00,Saturday
2695,-5.965652732739265
1929,18.000034339370317
3063,1541874.0960960787
3064,0.0
2,7, 1, 7, 0,12, 0.00,60.00,Saturday
2695,-5.970033466928842
1929,18.000023957770748
3063,1593206.9841961826
3064,0.0
2,7, 1, 7, 0,13, 0.00,60.00,Saturday
2695,-5.972512452056791
1929,18.000001899731616
3063,1640611.0695544268
3064,0.0
2,7, 1, 7, 0,14, 0.00,60.00,Saturday
2695,-5.972144616568328
1929,18.000000215001128
3063,1680004.4371029449
3064,0.0
2,7, 1, 7, 0,15, 0.00,60.00,Saturday
2695,-5.968064337424473
1929,18.000000135840194
3063,1706582.6015439428
3064,0.0
2,7, 1, 7, 0,16, 0.00,60.00,Saturday
2695,-5.9593909337907429
1929,18.000000087989723
3063,1698639.088941838
3064,0.0
2,7, 1, 7, 0,17, 0.00,60.00,Saturday
2695,-5.947630503549312
1929,18.000000072183256
3063,1621758.6647213435
3064,0.0
2,7, 1, 7, 0,18, 0.00,60.00,Saturday
2695,-5.936252308162241
1929,18.00000006864948
3063,1522025.7116558448
3064,0.0
2,7, 1, 7, 0,19, 0.00,60.00,Saturday
2695,-6.396478095951697
1929,18.00000006702915
3063,1430572.7526352523
3064,0.0
2,7, 1, 7, 0,20, 0.00,60.00,Saturday
2695,-6.384861890733844
1929,18.000000066669896
3063,1352550.8566464449
3064,0.0
2,7, 1, 7, 0,21, 0.00,60.00,Saturday
2695,-6.374762528145637
1929,18.000000067772523
3063,1287946.9964976465
3064,0.0
2,7, 1, 7, 0,22, 0.00,60.00,Saturday
2695,-6.366742706899616
1929,18.00000007035754
3063,1238304.179651545
3064,0.0
2,7, 1, 7, 0,23, 0.00,60.00,Saturday
2695,-6.3609367030457
1929,18.000000073865665
3063,1202467.9970174712
3064,0.0
2,7, 1, 7, 0,24, 0.00,60.00,Saturday
2695,-6.3573665388744369
1929,18.00000132056636
3063,1179139.2081639185
3064,0.0
2,8, 1, 8, 0, 1, 0.00,60.00,Sunday
2695,-6.355747266328547
1929,18.000002810993725
3063,1174385.6882212794
3064,0.0
2,8, 1, 8, 0, 2, 0.00,60.00,Sunday
2695,-6.355299336637692
1929,18.00000427990619
3063,1180213.8470743378
3064,0.0
2,8, 1, 8, 0, 3, 0.00,60.00,Sunday
2695,-6.3558405484758959
1929,18.000010444421844
3063,1191544.2063816854
3064,0.0
2,8, 1, 8, 0, 4, 0.00,60.00,Sunday
2695,-6.357310265555344
1929,18.000016763129375
3063,1209188.0151256729
3064,0.0
2,8, 1, 8, 0, 5, 0.00,60.00,Sunday
2695,-6.359546389965679
1929,18.00001622270484
3063,1234742.3713003437
3064,0.0
2,8, 1, 8, 0, 6, 0.00,60.00,Sunday
2695,-6.362291186978248
1929,18.000022966133558
3063,1260712.13735666
3064,0.0
2,8, 1, 8, 0, 7, 0.00,60.00,Sunday
2695,-6.574688518493364
1929,18.000033634661823
3063,1288330.5410696832
3064,0.0
2,8, 1, 8, 0, 8, 0.00,60.00,Sunday
2695,-6.578780152219441
1929,18.000040520137636
3063,1319887.443703349
3064,0.0
2,8, 1, 8, 0, 9, 0.00,60.00,Sunday
2695,-6.079186895700438
1929,18.00003985980857
3063,1356385.6708992369
3064,0.0
2,8, 1, 8, 0,10, 0.00,60.00,Sunday
2695,-6.082937738689741
1929,18.000032791295835
3063,1396071.0748108677
3064,0.0
2,8, 1, 8, 0,11, 0.00,60.00,Sunday
2695,-6.086557103020901
1929,18.000011253639273
3063,1440718.9631324262
3064,0.0
2,8, 1, 8, 0,12, 0.00,60.00,Sunday
2695,-6.089701670176623
1929,18.000000145386946
3063,1478957.9345070294
3064,0.0
2,8, 1, 8, 0,13, 0.00,60.00,Sunday
2695,-6.092466828851179
1929,18.000003788233604
3063,1506747.4011700203
3064,0.0
2,8, 1, 8, 0,14, 0.00,60.00,Sunday
2695,-6.094660976746575
1929,18.000000915311046
3063,1529494.2664159677
3064,0.0
2,8, 1, 8, 0,15, 0.00,60.00,Sunday
2695,-6.095699296944685
1929,18.00000010645853
3063,1541843.6889467356
3064,0.0
2,8, 1, 8, 0,16, 0.00,60.00,Sunday
2695,-6.095060210195495
1929,18.000000095740878
3063,1537963.720257641
3064,0.0
2,8, 1, 8, 0,17, 0.00,60.00,Sunday
2695,-6.092552396811212
1929,18.00000008754526
3063,1513910.552304743
3064,0.0
2,8, 1, 8, 0,18, 0.00,60.00,Sunday
2695,-6.088548191763597
1929,18.00000008366361
3063,1475612.9625692182
3064,0.0
2,8, 1, 8, 0,19, 0.00,60.00,Sunday
2695,-6.588952513763761
1929,18.000000084786718
3063,1422084.0883823087
3064,0.0
2,8, 1, 8, 0,20, 0.00,60.00,Sunday
2695,-6.58309041056219
1929,18.000000087370954
3063,1369015.0905448304
3064,0.0
2,8, 1, 8, 0,21, 0.00,60.00,Sunday
2695,-6.578215545495323
1929,18.00000008923203
3063,1335171.4685937847
3064,0.0
2,8, 1, 8, 0,22, 0.00,60.00,Sunday
2695,-6.574148347668388
1929,18.000000088943687
3063,1323103.4026824535
3064,0.0
2,8, 1, 8, 0,23, 0.00,60.00,Sunday
2695,-6.570575939171866
1929,18.00000009150005
3063,1311112.3783711536
3064,0.0
2,8, 1, 8, 0,24, 0.00,60.00,Sunday
2695,-6.568292608943055
1929,18.00000010248188
3063,1297364.3691552077
3064,0.0
2,9, 1, 9, 0, 1, 0.00,60.00,Monday
2695,-6.568045581670678
1929,18.00000251461777
3063,1287797.6219264714
3064,0.0
2,9, 1, 9, 0, 2, 0.00,60.00,Monday
2695,-6.56938926448752
1929,18.000019513420189
3063,1291690.0403239076
3064,0.0
2,9, 1, 9, 0, 3, 0.00,60.00,Monday
2695,-6.571547156690147
1929,18.000026243239799
3063,1309323.4710999125
3064,0.0
2,9, 1, 9, 0, 4, 0.00,60.00,Monday
2695,-6.57428524175917
1929,18.00001972512646
3063,1336160.3555811183
3064,0.0
2,9, 1, 9, 0, 5, 0.00,60.00,Monday
2695,-6.577231852234394
1929,18.00000895900354