Program Version,EnergyPlus, Version 8.7.0-78a111df4a, YMD=2019.06.21 03:08
1,5,Environment Title[],Latitude[deg],Longitude[deg],Time Zone[],Elevation[m]
2,6,Day of Simulation[],Month[],Day of Month[],DST Indicator[1=yes 0=no],Hour[],StartMinute[],EndMinute[],DayType
3,3,Cumulative Day of Simulation[],Month[],Day of Month[],DST Indicator[1=yes 0=no],DayType  ! When Daily Report Variables Requested
4,2,Cumulative Days of Simulation[],Month[]  ! When Monthly Report Variables Requested
5,1,Cumulative Days of Simulation[] ! When Run Period Report Variables Requested
1929,1,THERMAL ZONE: SPACE 201,Zone Air Temperature [C] !Hourly
2695,1,THERMAL ZONE: SPACE 201 PEOPLE,Zone Thermal Comfort Fanger Model PMV [] !Hourly
3063,1,THERMAL ZONE: SPACE 305 PTHP,Zone Packaged Terminal Heat Pump Total Heating Energy [J] !Hourly
3064,1,THERMAL ZONE: SPACE 305 PTHP,Zone Packaged Terminal Heat Pump Total Cooling Energy [J] !Hourly
End of Data Dictionary
1,ANN HTG 99.6% CONDNS DB,  29.58, 106.47,   8.00, 259.10
2,1, 1,21, 0, 1, 0.00,60.00,WinterDesignDay
2695,-6.493806677798176
1929,18.00006589376448
3063,4653959.8362799449
3064,0.0
2,1, 1,21, 0, 2, 0.00,60.00,WinterDesignDay
2695,-6.497719590271118
1929,18.000049811388768
3063,4673051.551167337
3064,0.0
2,1, 1,21, 0, 3, 0.00,60.00,WinterDesignDay
2695,-6.500981146741954
1929,18.000035775885725
3063,4692914.301204471
3064,0.0
2,1, 1,21, 0, 4, 0.00,60.00,WinterDesignDay
2695,-6.503839291096933
1929,18.000030331366017
3063,4710755.594390093
3064,0.0
2,1, 1,21, 0, 5, 0.00,60.00,WinterDesignDay
2695,-6.506553367581968
1929,18.00002391423989
3063,4731078.459523514
3064,0.0
2,1, 1,21, 0, 6, 0.00,60.00,WinterDesignDay
2695,-6.508801824746397
1929,17.999995922493626
3063,4761553.141647512
3064,0.0
2,1, 1,21, 0, 7, 0.00,60.00,WinterDesignDay
2695,-5.677417004399651
1929,17.999927493726827
3063,4800792.909216816
3064,0.0
2,1, 1,21, 0, 8, 0.00,60.00,WinterDesignDay
2695,-5.674518654633659
1929,17.999833416850888
3063,5187408.197110188
3064,0.0
2,1, 1,21, 0, 9, 0.00,60.00,WinterDesignDay
2695,-5.319366153287549
1929,18.000099050854133
3063,6312602.309026109
3064,0.0
2,1, 1,21, 0,10, 0.00,60.00,WinterDesignDay
2695,-5.300542785564724
1929,18.000706171561597
3063,7306893.193114078
3064,0.0
2,1, 1,21, 0,11, 0.00,60.00,WinterDesignDay
2695,-5.288651813078193
1929,18.000900223477829
3063,7023689.804933322
3064,0.0
2,1, 1,21, 0,12, 0.00,60.00,WinterDesignDay
2695,-5.2808997807999529
1929,18.000927288829599
3063,6837307.573905651
3064,0.0
2,1, 1,21, 0,13, 0.00,60.00,WinterDesignDay
2695,-5.276667486413806
1929,18.00084136314592
3063,6368499.554582796
3064,0.0
2,1, 1,21, 0,14, 0.00,60.00,WinterDesignDay
2695,-5.2730548306056319
1929,18.00081750395343
3063,6295281.112357668
3064,0.0
2,1, 1,21, 0,15, 0.00,60.00,WinterDesignDay
2695,-5.2684183216799529
1929,18.00096291088857
3063,6558161.168209716
3064,0.0
2,1, 1,21, 0,16, 0.00,60.00,WinterDesignDay
2695,-5.266588412385371
1929,18.001090153579296
3063,6545407.373671388
3064,0.0
2,1, 1,21, 0,17, 0.00,60.00,WinterDesignDay
2695,-5.267865577347994
1929,18.001148633506856
3063,6602518.788878255
3064,0.0
2,1, 1,21, 0,18, 0.00,60.00,WinterDesignDay
2695,-5.270230792769067
1929,18.001195170903967
3063,6689303.408723154
3064,0.0
2,1, 1,21, 0,19, 0.00,60.00,WinterDesignDay
2695,-5.615432280400705
1929,18.00068335456834
3063,5224181.988932098
3064,0.0
2,1, 1,21, 0,20, 0.00,60.00,WinterDesignDay
2695,-5.631008383064974
1929,18.000359396842844
3063,5400457.921690807
3064,0.0
2,1, 1,21, 0,21, 0.00,60.00,WinterDesignDay
2695,-5.641328030296997
1929,18.000188974619545
3063,4571009.115683123
3064,0.0
2,1, 1,21, 0,22, 0.00,60.00,WinterDesignDay
2695,-5.649349084289262
1929,18.000115318034827
3063,4614718.902186791
3064,0.0
2,1, 1,21, 0,23, 0.00,60.00,WinterDesignDay
2695,-5.655000169067923
1929,18.000087707706557
3063,4635378.270488393
3064,0.0
2,1, 1,21, 0,24, 0.00,60.00,WinterDesignDay
2695,-5.659592253059696
1929,18.0000752821433
3063,4648968.107242383
3064,0.0
1,ANN CLG 4% CONDNS DB =>MWB,  29.58, 106.47,   8.00, 259.10
2,1, 7,21, 0, 1, 0.00,60.00,SummerDesignDay
2695,-3.1533297456832445
1929,25.999759282421029
3063,0.0
3064,881612.3056648235
2,1, 7,21, 0, 2, 0.00,60.00,SummerDesignDay
2695,-3.163593606948583
1929,25.999830686067324
3063,0.0
3064,849168.8265485326
2,1, 7,21, 0, 3, 0.00,60.00,SummerDesignDay
2695,-3.1715483490191409
1929,25.999879685767099
3063,0.0
3064,822038.5066007124
2,1, 7,21, 0, 4, 0.00,60.00,SummerDesignDay
2695,-3.178024186652671
1929,25.999910371230955
3063,0.0
3064,798664.4279736888
2,1, 7,21, 0, 5, 0.00,60.00,SummerDesignDay
2695,-3.183619629433384
1929,25.9999319424432
3063,0.0
3064,776448.1266954998
2,1, 7,21, 0, 6, 0.00,60.00,SummerDesignDay
2695,-3.1884767475917195
1929,25.999961073896104
3063,0.0
3064,751088.6034316851
2,1, 7,21, 0, 7, 0.00,60.00,SummerDesignDay
2695,-3.891863525684144
1929,25.999996550685734
3063,0.0
3064,720968.8355906799
2,1, 7,21, 0, 8, 0.00,60.00,SummerDesignDay
2695,-3.8689098195056714
1929,25.999682173619033
3063,0.0
3064,1125965.2397206373
2,1, 7,21, 0, 9, 0.00,60.00,SummerDesignDay
2695,-3.8106650515835325
1929,25.99690939685647
3063,0.0
3064,3788221.1440694287
2,1, 7,21, 0,10, 0.00,60.00,SummerDesignDay
2695,-3.6601310479488986
1929,26.58178599155009
3063,0.0
3064,6871447.893637698
2,1, 7,21, 0,11, 0.00,60.00,SummerDesignDay
2695,-3.5470150085171516
1929,26.98577454965753
3063,0.0
3064,6974499.8717271
2,1, 7,21, 0,12, 0.00,60.00,SummerDesignDay
2695,-3.4771587421768426
1929,27.287331280461797
3063,0.0
3064,6915043.908317539
2,1, 7,21, 0,13, 0.00,60.00,SummerDesignDay
2695,-3.5138175429239277
1929,26.964784396833
3063,0.0
3064,6570188.334237786
2,1, 7,21, 0,14, 0.00,60.00,SummerDesignDay
2695,-3.5203601740307897
1929,27.020402571707593
3063,0.0
3064,6331129.733075039
2,1, 7,21, 0,15, 0.00,60.00,SummerDesignDay
2695,-3.4102951933465328
1929,27.629775056840204
3063,0.0
3064,6661797.882019705
2,1, 7,21, 0,16, 0.00,60.00,SummerDesignDay
2695,-3.3648055221726964
1929,27.6762190224061
3063,0.0
3064,6921791.772736113
2,1, 7,21, 0,17, 0.00,60.00,SummerDesignDay
2695,-3.3804129819466177
1929,27.553384019168104
3063,0.0
3064,7015043.1234881919
2,1, 7,21, 0,18, 0.00,60.00,SummerDesignDay
2695,-3.407346988840853
1929,27.379000781842337
3063,0.0
3064,7110112.795369057
2,1, 7,21, 0,19, 0.00,60.00,SummerDesignDay
2695,-3.5814972686911328
1929,26.047591518754744
3063,0.0
3064,4161205.978458457
2,1, 7,21, 0,20, 0.00,60.00,SummerDesignDay
2695,-3.691731282510695
1929,25.997022750731789
3063,0.0
3064,3391599.0609152165
2,1, 7,21, 0,21, 0.00,60.00,SummerDesignDay
2695,-3.7257761462852536
1929,25.998587750525148
3063,0.0
3064,1362212.8243405359
2,1, 7,21, 0,22, 0.00,60.00,SummerDesignDay
2695,-3.7777958563345774
1929,25.99917370500624
3063,0.0
3064,1134488.0489441944
2,1, 7,21, 0,23, 0.00,60.00,SummerDesignDay
2695,-3.809130710592006
1929,25.999475774839224
3063,0.0
3064,1019808.7353323164
2,1, 7,21, 0,24, 0.00,60.00,SummerDesignDay
2695,-3.8296915071666066
1929,25.999659691512446
3063,0.0
3064,949771.2476213822
1,RUN PERIOD 1,  29.58, 106.47,   8.00, 259.10
2,1, 1, 1, 0, 1, 0.00,60.00,Holiday
2695,-6.119255336382366
1929,18.000204822949809
3063,1678394.4974916492
3064,0.0
2,1, 1, 1, 0, 2, 0.00,60.00,Holiday
2695,-6.122423539442658
1929,18.000078986458619
3063,1706032.2634026989
3064,0.0
2,1, 1, 1, 0, 3, 0.00,60.00,Holiday
2695,-6.123974507893848
1929,18.0000550870395
3063,1710965.7761473307
3064,0.0
2,1, 1, 1, 0, 4, 0.00,60.00,Holiday
2695,-6.125724624990465
1929,18.00007416946843
3063,1710775.0491781298
3064,0.0
2,1, 1, 1, 0, 5, 0.00,60.00,Holiday
2695,-6.128846940851049
1929,18.000128441953277
3063,1706402.693509253
3064,0.0
2,1, 1, 1, 0, 6, 0.00,60.00,Holiday
2695,-6.135659356086834
1929,18.000164875944866
3063,1647270.3972178684
3064,0.0
2,1, 1, 1, 0, 7, 0.00,60.00,Holiday
2695,-6.542057632437654
1929,18.00012389964733
3063,1693873.205709577
3064,0.0
2,1, 1, 1, 0, 8, 0.00,60.00,Holiday
2695,-6.551133801025441
1929,18.000079656600119
3063,1755330.3569461308
3064,0.0
2,1, 1, 1, 0, 9, 0.00,60.00,Holiday
2695,-6.056716642487337
1929,18.00003994922629
3063,1815484.6462255682
3064,0.0
2,1, 1, 1, 0,10, 0.00,60.00,Holiday
2695,-6.059460357388112
1929,18.000008846241597
3063,1879817.3566340747
3064,0.0
2,1, 1, 1, 0,11, 0.00,60.00,Holiday
2695,-6.060311913284587
1929,18.000005567855057
3063,1923124.633074188
3064,0.0
2,1, 1, 1, 0,12, 0.00,60.00,Holiday
2695,-6.06091052615779
1929,18.000002286957018
3063,1945370.65003367
3064,0.0
2,1, 1, 1, 0,13, 0.00,60.00,Holiday
2695,-6.061623771643441
1929,18.00000067791476
3063,1988093.9942503053
3064,0.0
2,1, 1, 1, 0,14, 0.00,60.00,Holiday
2695,-6.060352133930114
1929,18.000000561877024
3063,2028236.513312037
3064,0.0
2,1, 1, 1, 0,15, 0.00,60.00,Holiday
2695,-6.056767698585939
1929,18.000000453028233
3063,2052705.9414304808
3064,0.0
2,1, 1, 1, 0,16, 0.00,60.00,Holiday
2695,-6.050727285951193
1929,18.00000035329695
3063,2063817.6711072254
3064,0.0
2,1, 1, 1, 0,17, 0.00,60.00,Holiday
2695,-6.042153402246409
1929,18.000000276297337
3063,2059106.5629097266
3064,0.0
2,1, 1, 1, 0,18, 0.00,60.00,Holiday
2695,-6.031457782950535
1929,18.00000022845787
3063,2032774.2695208169
3064,0.0
2,1, 1, 1, 0,19, 0.00,60.00,Holiday
2695,-6.513783745857474
1929,18.000000202974339
3063,1982526.2568577245
3064,0.0
2,1, 1, 1, 0,20, 0.00,60.00,Holiday
2695,-6.501273676625398
1929,18.000000207031837
3063,1892261.3872182193
3064,0.0
2,1, 1, 1, 0,21, 0.00,60.00,Holiday
2695,-6.4942504372664759
1929,18.000053962658993
3063,1778600.780723792
3064,0.0
2,1, 1, 1, 0,22, 0.00,60.00,Holiday
2695,-6.494561816600746
1929,18.00028749407996
3063,1692496.987105153
3064,0.0
2,1, 1, 1, 0,23, 0.00,60.00,Holiday
2695,-6.500041462782494
1929,18.000381211336689
3063,1653069.8110997873
3064,0.0
2,1, 1, 1, 0,24, 0.00,60.00,Holiday
2695,-6.50752522159837
1929,18.000372655773039
3063,1642848.2015771545
3064,0.0
2,2, 1, 2, 0, 1, 0.00,60.00,Holiday
2695,-6.514556703272003
1929,18.000339341914466
3063,1642665.8712513594
3064,0.0
2,2, 1, 2, 0, 2, 0.00,60.00,Holiday
2695,-6.521614658648687
1929,18.000277315751437
3063,1656442.569171287
3064,0.0
2,2, 1, 2, 0, 3, 0.00,60.00,Holiday
2695,-6.528016046337123
1929,18.00020070876
3063,1679517.3351364462
3064,0.0
2,2, 1, 2, 0, 4, 0.00,60.00,Holiday
2695,-6.532997687147849
1929,18.00014138160235
3063,1702345.3253591792
3064,0.0
2,2, 1, 2, 0, 5, 0.00,60.00,Holiday
2695,-6.537026768604015
1929,18.00010186919692
3063,1725177.2344424516
3064,0.0
2,2, 1, 2, 0, 6, 0.00,60.00,Holiday
2695,-6.540521137908446
1929,18.000075714567804
3063,1749871.0521988217
3064,0.0
2,2, 1, 2, 0, 7, 0.00,60.00,Holiday
2695,-6.644167296049782
1929,18.000065141610006
3063,1774446.6245549664
3064,0.0
2,2, 1, 2, 0, 8, 0.00,60.00,Holiday
2695,-6.6474147211853069
1929,18.00005022558169
3063,1804399.3030483146
3064,0.0
2,2, 1, 2, 0, 9, 0.00,60.00,Holiday
2695,-6.132629549115021
1929,18.000004562187127
3063,1854898.6782626645
3064,0.0
2,2, 1, 2, 0,10, 0.00,60.00,Holiday
2695,-6.1327463821434569
1929,18.000000538313594
3063,1909640.4982555563
3064,0.0
2,2, 1, 2, 0,11, 0.00,60.00,Holiday
2695,-6.1312877607427789
1929,18.00000047916191
3063,1934635.2962149408
3064,0.0
2,2, 1, 2, 0,12, 0.00,60.00,Holiday
2695,-6.130225372519484
1929,18.000000436579357
3063,1954356.5653551897
3064,0.0
2,2, 1, 2, 0,13, 0.00,60.00,Holiday
2695,-6.129269393985617
1929,18.000000402874706
3063,1972151.6232867134
3064,0.0
2,2, 1, 2, 0,14, 0.00,60.00,Holiday
2695,-6.128129262643895
1929,18.000000365507608
3063,1985894.6402289647
3064,0.0
2,2, 1, 2, 0,15, 0.00,60.00,Holiday
2695,-6.12586069368772
1929,18.000000317621983
3063,2001299.9973888503
3064,0.0
2,2, 1, 2, 0,16, 0.00,60.00,Holiday
2695,-6.121283225440554
1929,18.000000273631117
3063,2003968.9394622923
3064,0.0
2,2, 1, 2, 0,17, 0.00,60.00,Holiday
2695,-6.114905771336775
1929,18.000000260377637
3063,1956643.2373739503
3064,0.0
2,2, 1, 2, 0,18, 0.00,60.00,Holiday
2695,-6.109695904352116
1929,18.000000276479964
3063,1880313.78446338
3064,0.0
2,2, 1, 2, 0,19, 0.00,60.00,Holiday
2695,-6.6192089526647719
1929,18.000023334162099
3063,1811481.1912464204
3064,0.0
2,2, 1, 2, 0,20, 0.00,60.00,Holiday
2695,-6.617533823785245
1929,18.000093440450745
3063,1754464.2384409409
3064,0.0
2,2, 1, 2, 0,21, 0.00,60.00,Holiday
2695,-6.6173371230248458
1929,18.00009082352322
3063,1723460.304048683
3064,0.0
2,2, 1, 2, 0,22, 0.00,60.00,Holiday
2695,-6.61694044600987
1929,18.000020678316447
3063,1719433.5242764168
3064,0.0
2,2, 1, 2, 0,23, 0.00,60.00,Holiday
2695,-6.615423684522277
1929,18.00000038226675
3063,1712708.1575276647
3064,0.0
2,2, 1, 2, 0,24, 0.00,60.00,Holiday
2695,-6.614467629268609
1929,18.000042463712409
3063,1688623.7825505627
3064,0.0
2,3, 1, 3, 0, 1, 0.00,60.00,Holiday
2695,-6.616285713772194
1929,18.000113390627275
3063,1671534.0774983029
3064,0.0
2,3, 1, 3, 0, 2, 0.00,60.00,Holiday
2695,-6.62048024586958
1929,18.00020541213321
3063,1652105.028582322
3064,0.0
2,3, 1, 3, 0, 3, 0.00,60.00,Holiday
2695,-6.6281576567799009
1929,18.00024581464837
3063,1606133.8956313176
3064,0.0
2,3, 1, 3, 0, 4, 0.00,60.00,Holiday
2695,-6.641368317321498
1929,18.000158970623976
3063,1645650.2177935369
3064,0.0
2,3, 1, 3, 0, 5, 0.00,60.00,Holiday
2695,-6.650914835956385
1929,18.00008221499523
3063,1721860.3484072539
3064,0.0
2,3, 1, 3, 0, 6, 0.00,60.00,Holiday
2695,-6.656460438868579
1929,18.000040392478746
3063,1774013.9686739397
3064,0.0
2,3, 1, 3, 0, 7, 0.00,60.00,Holiday
2695,-6.561767418438005
1929,18.000007496213983
3063,1843289.0419692512
3064,0.0
2,3, 1, 3, 0, 8, 0.00,60.00,Holiday
2695,-6.562164403181772
1929,18.00000361559915
3063,1868841.8366656856
3064,0.0
2,3, 1, 3, 0, 9, 0.00,60.00,Holiday
2695,-6.061759957454257
1929,18.00000071487836
3063,1901160.5863009049
3064,0.0
2,3, 1, 3, 0,10, 0.00,60.00,Holiday
2695,-6.062475947898267
1929,18.000000669726608
3063,1935879.1027200025
3064,0.0
2,3, 1, 3, 0,11, 0.00,60.00,Holiday
2695,-6.063393800901597
1929,18.000000635586266
3063,1971711.6827380423
3064,0.0
2,3, 1, 3, 0,12, 0.00,60.00,Holiday
2695,-6.064265608818179
1929,18.000000604070697
3063,2004533.7827402885
3064,0.0
2,3, 1, 3, 0,13, 0.00,60.00,Holiday
2695,-6.065399053349405
1929,18.00000058205556
3063,2035730.962619551
3064,0.0
2,3, 1, 3, 0,14, 0.00,60.00,Holiday
2695,-6.0665600505231549
1929,18.000000565971676
3063,2066905.1187359573
3064,0.0
2,3, 1, 3, 0,15, 0.00,60.00,Holiday
2695,-6.067566579701118
1929,18.000000556753816
3063,2097564.0421429139
3064,0.0
2,3, 1, 3, 0,16, 0.00,60.00,Holiday
2695,-6.068178594873626
1929,18.000000551985325
3063,2124845.994007676
3064,0.0
2,3, 1, 3, 0,17, 0.00,60.00,Holiday
2695,-6.068286576880506
1929,18.00000054631697
3063,2153899.966331085
3064,0.0
2,3, 1, 3, 0,18, 0.00,60.00,Holiday
2695,-6.067539680493874
1929,18.000000546718039
3063,2175369.2218949615
3064,0.0
2,3, 1, 3, 0,19, 0.00,60.00,Holiday
2695,-6.5696416438788429
1929,18.000000544551694
3063,2192914.4300736517
3064,0.0
2,3, 1, 3, 0,20, 0.00,60.00,Holiday
2695,-6.567497619429614
1929,18.00000055028228
3063,2206484.499609038
3064,0.0
2,3, 1, 3, 0,21, 0.00,60.00,Holiday
2695,-6.564995572296542
1929,18.000000558965899
3063,2213362.3147072845
3064,0.0
2,3, 1, 3, 0,22, 0.00,60.00,Holiday
2695,-6.562684834296839
1929,18.00000056954316
3063,2214875.9278491365
3064,0.0
2,3, 1, 3, 0,23, 0.00,60.00,Holiday
2695,-6.56100926584512
1929,18.000000585750028
3063,2217468.8265702447
3064,0.0
2,3, 1, 3, 0,24, 0.00,60.00,Holiday
2695,-6.560017010777103
1929,18.00000060243651
3063,2215860.32791597
3064,0.0
2,4, 1, 4, 0, 1, 0.00,60.00,Wednesday
2695,-6.560028546116847
1929,18.000000619707209
3063,2222711.0861981224
3064,0.0
2,4, 1, 4, 0, 2, 0.00,60.00,Wednesday
2695,-6.560312187654037
1929,18.00000201166201
3063,2227564.131025782
3064,0.0
2,4, 1, 4, 0, 3, 0.00,60.00,Wednesday
2695,-6.561119541289094
1929,18.00000146234211
3063,2237718.676039882
3064,0.0
2,4, 1, 4, 0, 4, 0.00,60.00,Wednesday
2695,-6.561781091993925
1929,18.0000006749728
3063,2251533.2706764719
3064,0.0
2,4, 1, 4, 0, 5, 0.00,60.00,Wednesday
2695,-6.5620702159135
1929,18.00000068566659
3063,2267930.5519911318
3064,0.0
2,4, 1, 4, 0, 6, 0.00,60.00,Wednesday
2695,-6.5617959767919269
1929,18.00000069901033
3063,2278988.075459956
3064,0.0
2,4, 1, 4, 0, 7, 0.00,60.00,Wednesday
2695,-6.691149781040482
1929,18.000000710285886
3063,2284798.759383316
3064,0.0
2,4, 1, 4, 0, 8, 0.00,60.00,Wednesday
2695,-6.689566409093398
1929,18.000025462909524
3063,2281544.187571634
3064,0.0
2,4, 1, 4, 0, 9, 0.00,60.00,Wednesday
2695,-6.152828447587829
1929,18.000206165064566
3063,2191196.0337207994
3064,0.0
2,4, 1, 4, 0,10, 0.00,60.00,Wednesday
2695,-6.135320989308301
1929,18.00042128772147
3063,2037126.0558733266
3064,0.0
2,4, 1, 4, 0,11, 0.00,60.00,Wednesday
2695,-6.129301731339552
1929,18.00051170589499
3063,1950049.9963508412
3064,0.0
2,4, 1, 4, 0,12, 0.00,60.00,Wednesday
2695,-6.130223340408706
1929,18.00049093250075
3063,1890454.2852191227
3064,0.0
2,4, 1, 4, 0,13, 0.00,60.00,Wednesday
2695,-6.1320134635251339
1929,18.00047679177383
3063,1855660.262571341
3064,0.0
2,4, 1, 4, 0,14, 0.00,60.00,Wednesday
2695,-6.132591924216456
1929,18.00041257528103
3063,1770802.5167869372
3064,0.0
2,4, 1, 4, 0,15, 0.00,60.00,Wednesday
2695,-6.127121809885534
1929,18.00029388399626
3063,1565801.1274951378
3064,0.0
2,4, 1, 4, 0,16, 0.00,60.00,Wednesday
2695,-6.116586719890155
1929,18.000225791797349
3063,1398549.67414488
3064,0.0
2,4, 1, 4, 0,17, 0.00,60.00,Wednesday
2695,-6.1058645634776929
1929,18.000224518466746
3063,1311878.5559594336
3064,0.0
2,4, 1, 4, 0,18, 0.00,60.00,Wednesday
2695,-6.099929006511707
1929,18.000248701391926
3063,1315113.7923180059
3064,0.0
2,4, 1, 4, 0,19, 0.00,60.00,Wednesday
2695,-6.619660770746795
1929,18.000404041252666
3063,1786907.358407635
3064,0.0
2,4, 1, 4, 0,20, 0.00,60.00,Wednesday
2695,-6.631783770688519
1929,18.000275545901137
3063,1848153.513116269
3064,0.0
2,4, 1, 4, 0,21, 0.00,60.00,Wednesday
2695,-6.640484160429607
1929,18.00025555188878
3063,1970097.5631094797
3064,0.0
2,4, 1, 4, 0,22, 0.00,60.00,Wednesday
2695,-6.6472301756842289
1929,18.000192483568634
3063,1986202.231619712
3064,0.0
2,4, 1, 4, 0,23, 0.00,60.00,Wednesday
2695,-6.652294734638006
1929,18.00014766224781
3063,1994248.722007214
3064,0.0
2,4, 1, 4, 0,24, 0.00,60.00,Wednesday
2695,-6.656602642709839
1929,18.000131162084278
3063,1997233.8862969718
3064,0.0
2,5, 1, 5, 0, 1, 0.00,60.00,Thursday
2695,-6.661273329174176
1929,18.000118469011345
3063,2003879.7249050672
3064,0.0
2,5, 1, 5, 0, 2, 0.00,60.00,Thursday
2695,-6.665585338983237
1929,18.000112559958699
3063,2011620.3799696898
3064,0.0
2,5, 1, 5, 0, 3, 0.00,60.00,Thursday
2695,-6.669598646879663
1929,18.000127071463678
3063,2015996.6117399587
3064,0.0
2,5, 1, 5, 0, 4, 0.00,60.00,Thursday
2695,-6.6742074951175829
1929,18.00015849023363
3063,2017829.0300763422
3064,0.0
2,5, 1, 5, 0, 5, 0.00,60.00,Thursday
2695,-6.679562660387295
1929,18.000163727963196
3063,2029173.9814757086
3064,0.0
2,5, 1, 5, 0, 6, 0.00,60.00,Thursday
2695,-6.684848249963024
1929,18.000150864332743
3063,2044806.3631333928
3064,0.0
2,5, 1, 5, 0, 7, 0.00,60.00,Thursday
2695,-6.70161830624384
1929,18.000163089892767
3063,2051309.7003880423
3064,0.0
2,5, 1, 5, 0, 8, 0.00,60.00,Thursday
2695,-6.705703829216442
1929,18.000155591427374
3063,2063915.866117292
3064,0.0
2,5, 1, 5, 0, 9, 0.00,60.00,Thursday
2695,-6.170646622328526
1929,18.000226152076239
3063,1997457.0900698896
3064,0.0
2,5, 1, 5, 0,10, 0.00,60.00,Thursday
2695,-6.153233800749272
1929,18.000366037850978
3063,1856204.4247801447
3064,0.0
2,5, 1, 5, 0,11, 0.00,60.00,Thursday
2695,-6.143550537690341
1929,18.000423070197259
3063,1764067.0625222936
3064,0.0
2,5, 1, 5, 0,12, 0.00,60.00,Thursday
2695,-6.139693392189219
1929,18.00041629434565
3063,1701941.3192881677
3064,0.0
2,5, 1, 5, 0,13, 0.00,60.00,Thursday
2695,-6.1377427667409709
1929,18.00039056460622
3063,1682239.2124409565
3064,0.0
2,5, 1, 5, 0,14, 0.00,60.00,Thursday
2695,-6.133758323226002
1929,18.000364590027784
3063,1619313.9530897113
3064,0.0
2,5, 1, 5, 0,15, 0.00,60.00,Thursday
2695,-6.128158830162995
1929,18.00032075143539
3063,1483468.7716866555
3064,0.0
2,5, 1, 5, 0,16, 0.00,60.00,Thursday
2695,-6.122949096499384
1929,18.00029562229861
3063,1389982.9615087657
3064,0.0
2,5, 1, 5, 0,17, 0.00,60.00,Thursday
2695,-6.1183043450562419
1929,18.000263075013018
3063,1296904.051239734
3064,0.0
2,5, 1, 5, 0,18, 0.00,60.00,Thursday
2695,-6.113861702837366
1929,18.000237765437626
3063,1212042.6375723165
3064,0.0
2,5, 1, 5, 0,19, 0.00,60.00,Thursday
2695,-6.636322495595503
1929,18.000376444014568
3063,1612327.4960398777
3064,0.0
2,5, 1, 5, 0,20, 0.00,60.00,Thursday
2695,-6.648978504411519
1929,18.000259323538569
3063,1650096.0800325033
3064,0.0
2,5, 1, 5, 0,21, 0.00,60.00,Thursday
2695,-6.658321836786931
1929,18.000268185452453
3063,1820020.3702696632
3064,0.0
2,5, 1, 5, 0,22, 0.00,60.00,Thursday
2695,-6.665921166467367
1929,18.000234816392618
3063,1835480.4828152962
3064,0.0
2,5, 1, 5, 0,23, 0.00,60.00,Thursday
2695,-6.67244230647943
1929,18.000186616756385
3063,1852271.1452760346
3064,0.0
2,5, 1, 5, 0,24, 0.00,60.00,Thursday
2695,-6.677501932753814
1929,18.000092360679849
3063,1882061.3466907973
3064,0.0
2,6, 1, 6, 0, 1, 0.00,60.00,Friday
2695,-6.67990112906699
1929,18.000037764258449
3063,1898668.3434779784
3064,0.0
2,6, 1, 6, 0, 2, 0.00,60.00,Friday
2695,-6.681425801456825
1929,18.00000462807923
3063,1917025.6023482008
3064,0.0
2,6, 1, 6, 0, 3, 0.00,60.00,Friday
2695,-6.681895733796588
1929,18.000000504931945
3063,1937311.2076811684
3064,0.0
2,6, 1, 6, 0, 4, 0.00,60.00,Friday
2695,-6.681412120870888
1929,18.000000522606674
3063,1953401.1991537926
3064,0.0
2,6, 1, 6, 0, 5, 0.00,60.00,Friday
2695,-6.680418043183007
1929,18.000000534055848
3063,1966472.6794602993
3064,0.0
2,6, 1, 6, 0, 6, 0.00,60.00,Friday
2695,-6.679303396473126
1929,18.000000540576037
3063,1979238.6993357926
3064,0.0
2,6, 1, 6, 0, 7, 0.00,60.00,Friday
2695,-6.675548778700328
1929,18.000000547197855
3063,1980836.3121723619
3064,0.0
2,6, 1, 6, 0, 8, 0.00,60.00,Friday
2695,-6.6741552591532129
1929,18.00001932828858
3063,1975627.660493741
3064,0.0
2,6, 1, 6, 0, 9, 0.00,60.00,Friday
2695,-6.140620896011552
1929,18.00016704098695
3063,1855732.3904814947
3064,0.0
2,6, 1, 6, 0,10, 0.00,60.00,Friday
2695,-6.121366529726262
1929,18.000297234202063
3063,1577136.9418945313
3064,0.0
2,6, 1, 6, 0,11, 0.00,60.00,Friday
2695,-6.112490892708064
1929,18.000306711131417
3063,1386429.222946189
3064,0.0
2,6, 1, 6, 0,12, 0.00,60.00,Friday
2695,-6.110218201664433
1929,18.000240812809979
3063,1219851.2248089403
3064,0.0
2,6, 1, 6, 0,13, 0.00,60.00,Friday
2695,-6.1091938529257059
1929,18.000214446822189
3063,1143110.7193239367
3064,0.0
2,6, 1, 6, 0,14, 0.00,60.00,Friday
2695,-6.1067454296279559
1929,18.0001678743596
3063,951854.1519708014
3064,0.0
2,6, 1, 6, 0,15, 0.00,60.00,Friday
2695,-6.081178115145626
1929,18.136992988359116
3063,516198.59569533416
3064,0.0
2,6, 1, 6, 0,16, 0.00,60.00,Friday
2695,-6.0196877320228909
1929,18.3907524640387
3063,211433.59184221267
3064,0.0
2,6, 1, 6, 0,17, 0.00,60.00,Friday
2695,-5.971140906637976
1929,18.519442259478674
3063,46258.31298857086
3064,0.0
2,6, 1, 6, 0,18, 0.00,60.00,Friday
2695,-5.954658672531511
1929,18.509891959241214
3063,21917.934640809242
3064,0.0
2,6, 1, 6, 0,19, 0.00,60.00,Friday
2695,-6.520247789551512
1929,18.018661309227054
3063,944690.2590311518
3064,0.0
2,6, 1, 6, 0,20, 0.00,60.00,Friday
2695,-6.55060177595809
1929,18.000177622889045
3063,938853.3978606752
3064,0.0
2,6, 1, 6, 0,21, 0.00,60.00,Friday
2695,-6.556356598312298
1929,18.000252000855999
3063,1209628.658488122
3064,0.0
2,6, 1, 6, 0,22, 0.00,60.00,Friday
2695,-6.55912770754217
1929,18.000212086223983
3063,1175168.0944688628
3064,0.0
2,6, 1, 6, 0,23, 0.00,60.00,Friday
2695,-6.561629766076529
1929,18.000199469635676
3063,1145999.1981028766
3064,0.0
2,6, 1, 6, 0,24, 0.00,60.00,Friday
2695,-6.564882927858972
1929,18.00019878813808
3063,1127368.5541280369
3064,0.0
2,7, 1, 7, 0, 1, 0.00,60.00,Saturday
2695,-6.5691110561683179
1929,18.00018796597875
3063,1122816.6172336869
3064,0.0
2,7, 1, 7, 0, 2, 0.00,60.00,Saturday
2695,-6.573901580214515
1929,18.00019166959746
3063,1124090.2455372504
3064,0.0
2,7, 1, 7, 0, 3, 0.00,60.00,Saturday
2695,-6.579588280062533
1929,18.000209355397645
3063,1129435.577519758
3064,0.0
2,7, 1, 7, 0, 4, 0.00,60.00,Saturday
2695,-6.5865498582885639
1929,18.00023335638587
3063,1138501.9641722679
3064,0.0
2,7, 1, 7, 0, 5, 0.00,60.00,Saturday
2695,-6.595063325482193
1929,18.000264003503589
3063,1128756.2270741582
3064,0.0
2,7, 1, 7, 0, 6, 0.00,60.00,Saturday
2695,-6.610734308522371
1929,18.000231054401224
3063,1083950.873160185
3064,0.0
2,7, 1, 7, 0, 7, 0.00,60.00,Saturday
2695,-6.422029451204321
1929,18.00015491504469
3063,1163937.8434577769
3064,0.0
2,7, 1, 7, 0, 8, 0.00,60.00,Saturday
2695,-6.43551354417895
1929,18.000093232934615
3063,1246039.2134610024
3064,0.0
2,7, 1, 7, 0, 9, 0.00,60.00,Saturday
2695,-5.965454857985347
1929,18.00005723649912
3063,1313656.5187157698
3064,0.0
2,7, 1, 7, 0,10, 0.00,60.00,Saturday
2695,-5.971311020669524
1929,18.000045130954676
3063,1367178.8959723118
3064,0.0
2,7, 1, 7, 0,11, 0.00,60.00,Saturday
2695,-5.976452363597616
1929,18.000033434548305
3063,1426073.003746336
3064,0.0
2,7, 1, 7, 0,12, 0.00,60.00,Saturday
2695,-5.980659504628844
1929,18.000023107036716
3063,1478837.0824781813
3064,0.0
2,7, 1, 7, 0,13, 0.00,60.00,Saturday
2695,-5.983609043080361
1929,18.00000162767901
3063,1522948.169186012
3064,0.0
2,7, 1, 7, 0,14, 0.00,60.00,Saturday
2695,-5.984299743959366
1929,18.000000256437756
3063,1553757.7052532768
3064,0.0
2,7, 1, 7, 0,15, 0.00,60.00,Saturday
2695,-5.98166135785452
1929,18.000000167381655
3063,1566237.864572899
3064,0.0
2,7, 1, 7, 0,16, 0.00,60.00,Saturday
2695,-5.974704467911244
1929,18.000000113464698
3063,1538387.847978255
3064,0.0
2,7, 1, 7, 0,17, 0.00,60.00,Saturday
2695,-5.964808469744955
1929,18.000000098334135
3063,1441469.845429895
3064,0.0
2,7, 1, 7, 0,18, 0.00,60.00,Saturday
2695,-5.955572285512552
1929,18.000000099096288
3063,1321689.140378573
3064,0.0
2,7, 1, 7, 0,19, 0.00,60.00,Saturday
2695,-6.423419100638196
1929,18.000000102640386
3063,1210327.3401711693
3064,0.0
2,7, 1, 7, 0,20, 0.00,60.00,Saturday
2695,-6.414142241703524
1929,18.000000107747196
3063,1114492.7917331029
3064,0.0
2,7, 1, 7, 0,21, 0.00,60.00,Saturday
2695,-6.405742900495675
1929,18.000000114462766
3063,1035858.9657809717
3064,0.0
2,7, 1, 7, 0,22, 0.00,60.00,Saturday
2695,-6.398882350695626
1929,18.000000122683706
3063,976393.6496792908
3064,0.0
2,7, 1, 7, 0,23, 0.00,60.00,Saturday
2695,-6.393825625682403
1929,18.000000131418557
3063,935019.0836433568
3064,0.0
2,7, 1, 7, 0,24, 0.00,60.00,Saturday
2695,-6.390762935152576
1929,18.000020021815396
3063,909533.2671853142
3064,0.0
2,8, 1, 8, 0, 1, 0.00,60.00,Sunday
2695,-6.389466768324932
1929,18.000026368038424
3063,903305.7840141393
3064,0.0
2,8, 1, 8, 0, 2, 0.00,60.00,Sunday
2695,-6.389047323023385
1929,18.000023458141084
3063,909406.4001793822
3064,0.0
2,8, 1, 8, 0, 3, 0.00,60.00,Sunday
2695,-6.389399091313854
1929,18.000027596050765
3063,923030.2690361135
3064,0.0
2,8, 1, 8, 0, 4, 0.00,60.00,Sunday
2695,-6.390531838542063
1929,18.000032158661985
3063,944061.8252967426
3064,0.0
2,8, 1, 8, 0, 5, 0.00,60.00,Sunday
2695,-6.392306277524316
1929,18.00002786676415
3063,973288.0284925703
3064,0.0
2,8, 1, 8, 0, 6, 0.00,60.00,Sunday
2695,-6.394454715137981
1929,18.000033761574647
3063,1004406.1195679547
3064,0.0
2,8, 1, 8, 0, 7, 0.00,60.00,Sunday
2695,-6.607269694092634
1929,18.000044430749587
3063,1037726.2227735876
3064,0.0
2,8, 1, 8, 0, 8, 0.00,60.00,Sunday
2695,-6.610664758434043
1929,18.000049941307464
3063,1074948.156936891
3064,0.0
2,8, 1, 8, 0, 9, 0.00,60.00,Sunday
2695,-6.104192232936747
1929,18.000046119795916
3063,1116917.6422980636
3064,0.0
2,8, 1, 8, 0,10, 0.00,60.00,Sunday
2695,-6.107253746174021
1929,18.00003524752017
3063,1162240.9120767874
3064,0.0
2,8, 1, 8, 0,11, 0.00,60.00,Sunday
2695,-6.1100917124749769
1929,18.000009269085685
3063,1212276.2423334262
3064,0.0
2,8, 1, 8, 0,12, 0.00,60.00,Sunday
2695,-6.112368190467684
1929,18.00000020874747
3063,1257091.5183085325
3064,0.0
2,8, 1, 8, 0,13, 0.00,60.00,Sunday
2695,-6.114395102558213
1929,18.000001710722846
3063,1291526.9204887606
3064,0.0
2,8, 1, 8, 0,14, 0.00,60.00,Sunday
2695,-6.116103504467436
1929,18.000000385642549
3063,1318822.3766263179
3064,0.0
2,8, 1, 8, 0,15, 0.00,60.00,Sunday
2695,-6.116894001760083
1929,18.000000148543206
3063,1333533.5248231427
3064,0.0
2,8, 1, 8, 0,16, 0.00,60.00,Sunday
2695,-6.116285743535401
1929,18.000000134258476
3063,1329102.0262824973
3064,0.0
2,8, 1, 8, 0,17, 0.00,60.00,Sunday
2695,-6.1140699989844509
1929,18.000000124455864
3063,1301680.9550647806
3064,0.0
2,8, 1, 8, 0,18, 0.00,60.00,Sunday
2695,-6.110550585512077
1929,18.000000121363198
3063,1257724.0003476977
3064,0.0
2,8, 1, 8, 0,19, 0.00,60.00,Sunday
2695,-6.617074614367092
1929,18.00000012587723
3063,1198626.4696656157
3064,0.0
2,8, 1, 8, 0,20, 0.00,60.00,Sunday
2695,-6.6118887469447229
1929,18.000000132588516
3063,1139914.302582976
3064,0.0
2,8, 1, 8, 0,21, 0.00,60.00,Sunday
2695,-6.607470648464656
1929,18.000000137702594
3063,1099947.948589202
3064,0.0
2,8, 1, 8, 0,22, 0.00,60.00,Sunday
2695,-6.603434386338286
1929,18.00000013861536
3063,1082385.6120941137
3064,0.0
2,8, 1, 8, 0,23, 0.00,60.00,Sunday
2695,-6.599432751046919
1929,18.000000142875139
3063,1069647.6234117619
3064,0.0
2,8, 1, 8, 0,24, 0.00,60.00,Sunday
2695,-6.596603999818171
1929,18.0000001590814
3063,1058916.7672180117
3064,0.0
2,9, 1, 9, 0, 1, 0.00,60.00,Monday
2695,-6.595893632420586
1929,18.000008581064649
3063,1053891.79255467
3064,0.0
2,9, 1, 9, 0, 2, 0.00,60.00,Monday
2695,-6.596897344706986
1929,18.00003472714216
3063,1061448.6085043657
3064,0.0
2,9, 1, 9, 0, 3, 0.00,60.00,Monday
2695,-6.5986863508484669
1929,18.000039313615948
3063,1081974.0946969884
3064,0.0
2,9, 1, 9, 0, 4, 0.00,60.00,Monday
2695,-6.600931940902124
1929,18.000028128740806
3063,1111887.4938951429
3064,0.0
2,9, 1, 9, 0, 5, 0.00,60.00,Monday
2695,-6.603234900730222