Program Version,EnergyPlus, Version 8.7.0-78a111df4a, YMD=2019.06.21 03:10
1,5,Environment Title[],Latitude[deg],Longitude[deg],Time Zone[],Elevation[m]
2,6,Day of Simulation[],Month[],Day of Month[],DST Indicator[1=yes 0=no],Hour[],StartMinute[],EndMinute[],DayType
3,3,Cumulative Day of Simulation[],Month[],Day of Month[],DST Indicator[1=yes 0=no],DayType  ! When Daily Report Variables Requested
4,2,Cumulative Days of Simulation[],Month[]  ! When Monthly Report Variables Requested
5,1,Cumulative Days of Simulation[] ! When Run Period Report Variables Requested
1929,1,THERMAL ZONE: SPACE 201,Zone Air Temperature [C] !Hourly
2695,1,THERMAL ZONE: SPACE 201 PEOPLE,Zone Thermal Comfort Fanger Model PMV [] !Hourly
3063,1,THERMAL ZONE: SPACE 305 PTHP,Zone Packaged Terminal Heat Pump Total Heating Energy [J] !Hourly
3064,1,THERMAL ZONE: SPACE 305 PTHP,Zone Packaged Terminal Heat Pump Total Cooling Energy [J] !Hourly
End of Data Dictionary
1,ANN HTG 99.6% CONDNS DB,  29.58, 106.47,   8.00, 259.10
2,1, 1,21, 0, 1, 0.00,60.00,WinterDesignDay
2695,-6.493923253033079
1929,18.000065901840864
3063,4651571.681316606
3064,0.0
2,1, 1,21, 0, 2, 0.00,60.00,WinterDesignDay
2695,-6.497837498425526
1929,18.000049818771506
3063,4670630.551692127
3064,0.0
2,1, 1,21, 0, 3, 0.00,60.00,WinterDesignDay
2695,-6.50110182300454
1929,18.000035781764038
3063,4690419.239311506
3064,0.0
2,1, 1,21, 0, 4, 0.00,60.00,WinterDesignDay
2695,-6.503963928335778
1929,18.000030335929549
3063,4708151.113517545
3064,0.0
2,1, 1,21, 0, 5, 0.00,60.00,WinterDesignDay
2695,-6.5066829268996619
1929,18.000023918488748
3063,4728335.554439806
3064,0.0
2,1, 1,21, 0, 6, 0.00,60.00,WinterDesignDay
2695,-6.5089370916332
1929,17.999995930742729
3063,4758648.844210227
3064,0.0
2,1, 1,21, 0, 7, 0.00,60.00,WinterDesignDay
2695,-5.677540318094604
1929,17.999927529774824
3063,4797709.703521132
3064,0.0
2,1, 1,21, 0, 8, 0.00,60.00,WinterDesignDay
2695,-5.674647985328348
1929,17.999833484097157
3063,5184134.744079943
3064,0.0
2,1, 1,21, 0, 9, 0.00,60.00,WinterDesignDay
2695,-5.319475347526007
1929,18.000098994505746
3063,6309135.470838593
3064,0.0
2,1, 1,21, 0,10, 0.00,60.00,WinterDesignDay
2695,-5.300656409611772
1929,18.000705977856158
3063,7303255.562087886
3064,0.0
2,1, 1,21, 0,11, 0.00,60.00,WinterDesignDay
2695,-5.288768655212318
1929,18.000900050869676
3063,7019914.00603424
3064,0.0
2,1, 1,21, 0,12, 0.00,60.00,WinterDesignDay
2695,-5.28101892344047
1929,18.0009271376402
3063,6833438.761041184
3064,0.0
2,1, 1,21, 0,13, 0.00,60.00,WinterDesignDay
2695,-5.27678734577032
1929,18.000841262314535
3063,6364599.388633619
3064,0.0
2,1, 1,21, 0,14, 0.00,60.00,WinterDesignDay
2695,-5.273173846453621
1929,18.00081740847036
3063,6291417.214385835
3064,0.0
2,1, 1,21, 0,15, 0.00,60.00,WinterDesignDay
2695,-5.268534886047667
1929,18.000962773750108
3063,6554401.194229975
3064,0.0
2,1, 1,21, 0,16, 0.00,60.00,WinterDesignDay
2695,-5.266700948350752
1929,18.00108999921061
3063,6541808.559122441
3064,0.0
2,1, 1,21, 0,17, 0.00,60.00,WinterDesignDay
2695,-5.267973047560325
1929,18.001148461894976
3063,6599123.092129023
3064,0.0
2,1, 1,21, 0,18, 0.00,60.00,WinterDesignDay
2695,-5.270332608814066
1929,18.00119497322708
3063,6686136.719523424
3064,0.0
2,1, 1,21, 0,19, 0.00,60.00,WinterDesignDay
2695,-5.6155509651622579
1929,18.000683344007976
3063,5221253.401714355
3064,0.0
2,1, 1,21, 0,20, 0.00,60.00,WinterDesignDay
2695,-5.631120117647453
1929,18.0003594051288
3063,5397751.838457643
3064,0.0
2,1, 1,21, 0,21, 0.00,60.00,WinterDesignDay
2695,-5.641433929908282
1929,18.00018899626597
3063,4568496.568176253
3064,0.0
2,1, 1,21, 0,22, 0.00,60.00,WinterDesignDay
2695,-5.649450278920018
1929,18.000115335922549
3063,4612362.157503651
3064,0.0
2,1, 1,21, 0,23, 0.00,60.00,WinterDesignDay
2695,-5.655098316013119
1929,18.00008771974255
3063,4633127.626971214
3064,0.0
2,1, 1,21, 0,24, 0.00,60.00,WinterDesignDay
2695,-5.659688896668581
1929,18.000075290345597
3063,4646772.533321489
3064,0.0
1,ANN CLG 4% CONDNS DB =>MWB,  29.58, 106.47,   8.00, 259.10
2,1, 7,21, 0, 1, 0.00,60.00,SummerDesignDay
2695,-3.1531323237317205
1929,25.99975979897062
3063,0.0
3064,880349.6987792896
2,1, 7,21, 0, 2, 0.00,60.00,SummerDesignDay
2695,-3.163378273076131
1929,25.9998310917791
3063,0.0
3064,847894.3696257793
2,1, 7,21, 0, 3, 0.00,60.00,SummerDesignDay
2695,-3.171319880027577
1929,25.99987999908052
3063,0.0
3064,820759.3449472243
2,1, 7,21, 0, 4, 0.00,60.00,SummerDesignDay
2695,-3.177786352597733
1929,25.999910605107318
3063,0.0
3064,797385.8231163542
2,1, 7,21, 0, 5, 0.00,60.00,SummerDesignDay
2695,-3.1833754473121878
1929,25.99993211672923
3063,0.0
3064,775176.0955927067
2,1, 7,21, 0, 6, 0.00,60.00,SummerDesignDay
2695,-3.1882281031089
1929,25.99996123167526
3063,0.0
3064,749831.9852105836
2,1, 7,21, 0, 7, 0.00,60.00,SummerDesignDay
2695,-3.89152817153671
1929,25.999996608533725
3063,0.0
3064,719735.1867720478
2,1, 7,21, 0, 8, 0.00,60.00,SummerDesignDay
2695,-3.8685729245608315
1929,25.999681762329986
3063,0.0
3064,1124648.6815019344
2,1, 7,21, 0, 9, 0.00,60.00,SummerDesignDay
2695,-3.8104087140033799
1929,25.996907821812468
3063,0.0
3064,3786688.9061071809
2,1, 7,21, 0,10, 0.00,60.00,SummerDesignDay
2695,-3.6599654841171005
1929,26.58113331802816
3063,0.0
3064,6869532.415296532
2,1, 7,21, 0,11, 0.00,60.00,SummerDesignDay
2695,-3.5469349269896148
1929,26.984627650281906
3063,0.0
3064,6972647.180280966
2,1, 7,21, 0,12, 0.00,60.00,SummerDesignDay
2695,-3.476945382976993
1929,27.286078222328347
3063,0.0
3064,6913280.128914474
2,1, 7,21, 0,13, 0.00,60.00,SummerDesignDay
2695,-3.513753174827736
1929,26.963700984385985
3063,0.0
3064,6568453.856523518
2,1, 7,21, 0,14, 0.00,60.00,SummerDesignDay
2695,-3.5202702632281857
1929,27.019393177243314
3063,0.0
3064,6329358.500486308
2,1, 7,21, 0,15, 0.00,60.00,SummerDesignDay
2695,-3.410215481944252
1929,27.628724971358353
3063,0.0
3064,6660071.090318758
2,1, 7,21, 0,16, 0.00,60.00,SummerDesignDay
2695,-3.3647251049594177
1929,27.67509418765781
3063,0.0
3064,6920075.556388482
2,1, 7,21, 0,17, 0.00,60.00,SummerDesignDay
2695,-3.3803314005649178
1929,27.55229449488327
3063,0.0
3064,7013252.630751053
2,1, 7,21, 0,18, 0.00,60.00,SummerDesignDay
2695,-3.407275645581448
1929,27.37778524528291
3063,0.0
3064,7108301.437015814
2,1, 7,21, 0,19, 0.00,60.00,SummerDesignDay
2695,-3.5812364138816834
1929,26.047499555883748
3063,0.0
3064,4159099.5342325365
2,1, 7,21, 0,20, 0.00,60.00,SummerDesignDay
2695,-3.691423118202357
1929,25.997020851879879
3063,0.0
3064,3389860.7598561665
2,1, 7,21, 0,21, 0.00,60.00,SummerDesignDay
2695,-3.7255033742177945
1929,25.99858562100776
3063,0.0
3064,1360420.9536782476
2,1, 7,21, 0,22, 0.00,60.00,SummerDesignDay
2695,-3.777562862658032
1929,25.999173188280357
3063,0.0
3064,1133036.380045843
2,1, 7,21, 0,23, 0.00,60.00,SummerDesignDay
2695,-3.808897944056101
1929,25.999475896678857
3063,0.0
3064,1018493.2915245105
2,1, 7,21, 0,24, 0.00,60.00,SummerDesignDay
2695,-3.8294405777084927
1929,25.999660292676734
3063,0.0
3064,948495.5130362322
1,RUN PERIOD 1,  29.58, 106.47,   8.00, 259.10
2,1, 1, 1, 0, 1, 0.00,60.00,Holiday
2695,-6.11655412341386
1929,18.00020415628202
3063,1710443.1448943204
3064,0.0
2,1, 1, 1, 0, 2, 0.00,60.00,Holiday
2695,-6.119773783484767
1929,18.00008012190081
3063,1738132.9314822118
3064,0.0
2,1, 1, 1, 0, 3, 0.00,60.00,Holiday
2695,-6.121415376940459
1929,18.00005614831353
3063,1742389.8348518226
3064,0.0
2,1, 1, 1, 0, 4, 0.00,60.00,Holiday
2695,-6.123256723649988
1929,18.0000746435098
3063,1741316.7226244955
3064,0.0
2,1, 1, 1, 0, 5, 0.00,60.00,Holiday
2695,-6.126457117483832
1929,18.000128133999718
3063,1735969.3435466204
3064,0.0
2,1, 1, 1, 0, 6, 0.00,60.00,Holiday
2695,-6.133331192682403
1929,18.00016442703471
3063,1675922.0771351904
3064,0.0
2,1, 1, 1, 0, 7, 0.00,60.00,Holiday
2695,-6.539675009833599
1929,18.000124005207139
3063,1722831.8996467144
3064,0.0
2,1, 1, 1, 0, 8, 0.00,60.00,Holiday
2695,-6.548860761943719
1929,18.000079987020059
3063,1783001.7551195997
3064,0.0
2,1, 1, 1, 0, 9, 0.00,60.00,Holiday
2695,-6.054979310693139
1929,18.000040323633244
3063,1842274.4842879584
3064,0.0
2,1, 1, 1, 0,10, 0.00,60.00,Holiday
2695,-6.057811588672958
1929,18.00000901930713
3063,1905852.8043874498
3064,0.0
2,1, 1, 1, 0,11, 0.00,60.00,Holiday
2695,-6.058741222782938
1929,18.000005591203686
3063,1948432.816337404
3064,0.0
2,1, 1, 1, 0,12, 0.00,60.00,Holiday
2695,-6.059408895089423
1929,18.000002278910875
3063,1969848.3621166035
3064,0.0
2,1, 1, 1, 0,13, 0.00,60.00,Holiday
2695,-6.06018316592792
1929,18.00000066775333
3063,2012057.0555109617
3064,0.0
2,1, 1, 1, 0,14, 0.00,60.00,Holiday
2695,-6.0589613968520139
1929,18.00000055353349
3063,2051872.6144432689
3064,0.0
2,1, 1, 1, 0,15, 0.00,60.00,Holiday
2695,-6.055398154369524
1929,18.000000446158397
3063,2076357.567715703
3064,0.0
2,1, 1, 1, 0,16, 0.00,60.00,Holiday
2695,-6.049342225138381
1929,18.000000347625954
3063,2087928.5571925238
3064,0.0
2,1, 1, 1, 0,17, 0.00,60.00,Holiday
2695,-6.040714083621421
1929,18.00000027144568
3063,2084059.133232197
3064,0.0
2,1, 1, 1, 0,18, 0.00,60.00,Holiday
2695,-6.0299386853610958
1929,18.000000224000428
3063,2058707.4252948168
3064,0.0
2,1, 1, 1, 0,19, 0.00,60.00,Holiday
2695,-6.511763324126833
1929,18.00000019858695
3063,2009386.820547605
3064,0.0
2,1, 1, 1, 0,20, 0.00,60.00,Holiday
2695,-6.49912655271309
1929,18.000000202174545
3063,1919714.173996084
3064,0.0
2,1, 1, 1, 0,21, 0.00,60.00,Holiday
2695,-6.491943608518078
1929,18.00005113609108
3063,1806522.3978113379
3064,0.0
2,1, 1, 1, 0,22, 0.00,60.00,Holiday
2695,-6.492060401591441
1929,18.00028056731269
3063,1721278.604076188
3064,0.0
2,1, 1, 1, 0,23, 0.00,60.00,Holiday
2695,-6.49735255922603
1929,18.000375013038967
3063,1683005.2220209013
3064,0.0
2,1, 1, 1, 0,24, 0.00,60.00,Holiday
2695,-6.5047094447235429
1929,18.00036841569323
3063,1673775.5198843098
3064,0.0
2,2, 1, 2, 0, 1, 0.00,60.00,Holiday
2695,-6.511680336106893
1929,18.000336855053744
3063,1674049.177305514
3064,0.0
2,2, 1, 2, 0, 2, 0.00,60.00,Holiday
2695,-6.518736886661749
1929,18.000276467793169
3063,1687963.9962627833
3064,0.0
2,2, 1, 2, 0, 3, 0.00,60.00,Holiday
2695,-6.525191718386487
1929,18.000201155446076
3063,1710862.1601912629
3064,0.0
2,2, 1, 2, 0, 4, 0.00,60.00,Holiday
2695,-6.53026420198976
1929,18.000142453934399
3063,1733175.7041231218
3064,0.0
2,2, 1, 2, 0, 5, 0.00,60.00,Holiday
2695,-6.534402166445472
1929,18.000103090807938
3063,1755288.819055028
3064,0.0
2,2, 1, 2, 0, 6, 0.00,60.00,Holiday
2695,-6.538010695010541
1929,18.000076851871968
3063,1779166.4301779168
3064,0.0
2,2, 1, 2, 0, 7, 0.00,60.00,Holiday
2695,-6.641733463032345
1929,18.000066025574904
3063,1802852.0848032316
3064,0.0
2,2, 1, 2, 0, 8, 0.00,60.00,Holiday
2695,-6.645087475397254
1929,18.000050983693165
3063,1831970.8022155064
3064,0.0
2,2, 1, 2, 0, 9, 0.00,60.00,Holiday
2695,-6.130845073310887
1929,18.000004895226668
3063,1881866.3935936869
3064,0.0
2,2, 1, 2, 0,10, 0.00,60.00,Holiday
2695,-6.13106183245005
1929,18.000000528711014
3063,1935932.7476469572
3064,0.0
2,2, 1, 2, 0,11, 0.00,60.00,Holiday
2695,-6.129705226393419
1929,18.00000047094217
3063,1959866.5515183376
3064,0.0
2,2, 1, 2, 0,12, 0.00,60.00,Holiday
2695,-6.1287220690215309
1929,18.000000429381158
3063,1978590.5948324907
3064,0.0
2,2, 1, 2, 0,13, 0.00,60.00,Holiday
2695,-6.127829114635431
1929,18.00000039647055
3063,1995555.7663442488
3064,0.0
2,2, 1, 2, 0,14, 0.00,60.00,Holiday
2695,-6.126723953368384
1929,18.000000359798219
3063,2008750.343772286
3064,0.0
2,2, 1, 2, 0,15, 0.00,60.00,Holiday
2695,-6.124454968233728
1929,18.000000312576579
3063,2024085.9539708419
3064,0.0
2,2, 1, 2, 0,16, 0.00,60.00,Holiday
2695,-6.119841474058418
1929,18.000000269040617
3063,2027096.0576941856
3064,0.0
2,2, 1, 2, 0,17, 0.00,60.00,Holiday
2695,-6.113389277035783
1929,18.000000255645863
3063,1980098.6132743299
3064,0.0
2,2, 1, 2, 0,18, 0.00,60.00,Holiday
2695,-6.108049054560052
1929,18.000000270975609
3063,1904240.4852117904
3064,0.0
2,2, 1, 2, 0,19, 0.00,60.00,Holiday
2695,-6.61694269738446
1929,18.000022146248058
3063,1836193.9162867284
3064,0.0
2,2, 1, 2, 0,20, 0.00,60.00,Holiday
2695,-6.6150594029963989
1929,18.00009133610801
3063,1780143.818032345
3064,0.0
2,2, 1, 2, 0,21, 0.00,60.00,Holiday
2695,-6.614696093407654
1929,18.00008933962771
3063,1750407.448922475
3064,0.0
2,2, 1, 2, 0,22, 0.00,60.00,Holiday
2695,-6.614207562140202
1929,18.00002047327347
3063,1747658.4067232363
3064,0.0
2,2, 1, 2, 0,23, 0.00,60.00,Holiday
2695,-6.612676597953237
1929,18.000000372399556
3063,1741605.60346467
3064,0.0
2,2, 1, 2, 0,24, 0.00,60.00,Holiday
2695,-6.611736369452552
1929,18.000041866490795
3063,1717432.8784324709
3064,0.0
2,3, 1, 3, 0, 1, 0.00,60.00,Holiday
2695,-6.61356567313307
1929,18.000112061009888
3063,1700122.5813005903
3064,0.0
2,3, 1, 3, 0, 2, 0.00,60.00,Holiday
2695,-6.617769683817304
1929,18.000203341976826
3063,1680205.9492195673
3064,0.0
2,3, 1, 3, 0, 3, 0.00,60.00,Holiday
2695,-6.625447938849111
1929,18.000244089262645
3063,1633673.97254327
3064,0.0
2,3, 1, 3, 0, 4, 0.00,60.00,Holiday
2695,-6.638700360103102
1929,18.000158984934275
3063,1673419.1407206362
3064,0.0
2,3, 1, 3, 0, 5, 0.00,60.00,Holiday
2695,-6.648365212608918
1929,18.000082782079227
3063,1749227.7576268572
3064,0.0
2,3, 1, 3, 0, 6, 0.00,60.00,Holiday
2695,-6.654039261767646
1929,18.000040865913577
3063,1800630.5438550343
3064,0.0
2,3, 1, 3, 0, 7, 0.00,60.00,Holiday
2695,-6.5595004528711728
1929,18.000007574315885
3063,1869500.253317329
3064,0.0
2,3, 1, 3, 0, 8, 0.00,60.00,Holiday
2695,-6.560007308785397
1929,18.000003600368438
3063,1894013.9050001347
3064,0.0
2,3, 1, 3, 0, 9, 0.00,60.00,Holiday
2695,-6.060095697355268
1929,18.000000702250948
3063,1925643.0366582429
3064,0.0
2,3, 1, 3, 0,10, 0.00,60.00,Holiday
2695,-6.060879013921132
1929,18.000000658371027
3063,1959558.822492945
3064,0.0
2,3, 1, 3, 0,11, 0.00,60.00,Holiday
2695,-6.061858279142844
1929,18.000000625262709
3063,1994643.9020475578
3064,0.0
2,3, 1, 3, 0,12, 0.00,60.00,Holiday
2695,-6.062789005714198
1929,18.000000594675158
3063,2026703.1352554965
3064,0.0
2,3, 1, 3, 0,13, 0.00,60.00,Holiday
2695,-6.063975929402617
1929,18.0000005733984
3063,2057181.2734997909
3064,0.0
2,3, 1, 3, 0,14, 0.00,60.00,Holiday
2695,-6.0651894886448469
1929,18.000000557929856
3063,2087688.7040053474
3064,0.0
2,3, 1, 3, 0,15, 0.00,60.00,Holiday
2695,-6.066246776185648
1929,18.000000549197055
3063,2117672.5598564466
3064,0.0
2,3, 1, 3, 0,16, 0.00,60.00,Holiday
2695,-6.066911230751535
1929,18.000000544832184
3063,2144268.895398246
3064,0.0
2,3, 1, 3, 0,17, 0.00,60.00,Holiday
2695,-6.067073013453424
1929,18.000000539555456
3063,2172671.4156265475
3064,0.0
2,3, 1, 3, 0,18, 0.00,60.00,Holiday
2695,-6.066382747797988
1929,18.000000540264968
3063,2193429.481724745
3064,0.0
2,3, 1, 3, 0,19, 0.00,60.00,Holiday
2695,-6.568267587585261
1929,18.000000538415823
3063,2210281.8981426979
3064,0.0
2,3, 1, 3, 0,20, 0.00,60.00,Holiday
2695,-6.5661886140637739
1929,18.0000005443662
3063,2223188.2457128579
3064,0.0
2,3, 1, 3, 0,21, 0.00,60.00,Holiday
2695,-6.563749271294352
1929,18.00000055323541
3063,2229390.1002412785
3064,0.0
2,3, 1, 3, 0,22, 0.00,60.00,Holiday
2695,-6.561497082786546
1929,18.000000563987624
3063,2230237.673795253
3064,0.0
2,3, 1, 3, 0,23, 0.00,60.00,Holiday
2695,-6.559875648694656
1929,18.000000580330043
3063,2232214.967127064
3064,0.0
2,3, 1, 3, 0,24, 0.00,60.00,Holiday
2695,-6.558932978069385
1929,18.000000597152306
3063,2229996.476800448
3064,0.0
2,4, 1, 4, 0, 1, 0.00,60.00,Wednesday
2695,-6.558987600557675
1929,18.000000614547497
3063,2236332.456059474
3064,0.0
2,4, 1, 4, 0, 2, 0.00,60.00,Wednesday
2695,-6.5593127098873789
1929,18.00000190920101
3063,2240657.636608293
3064,0.0
2,4, 1, 4, 0, 3, 0.00,60.00,Wednesday
2695,-6.560159553373225
1929,18.000001372090919
3063,2250332.978835225
3064,0.0
2,4, 1, 4, 0, 4, 0.00,60.00,Wednesday
2695,-6.560862392117766
1929,18.00000067014535
3063,2263685.6339461125
3064,0.0
2,4, 1, 4, 0, 5, 0.00,60.00,Wednesday
2695,-6.561194594862285
1929,18.000000681002736
3063,2279639.1949811319
3064,0.0
2,4, 1, 4, 0, 6, 0.00,60.00,Wednesday
2695,-6.560968128848871
1929,18.000000694508146
3063,2290263.3934913806
3064,0.0
2,4, 1, 4, 0, 7, 0.00,60.00,Wednesday
2695,-6.690348815164935
1929,18.000000705949345
3063,2295624.9126225376
3064,0.0
2,4, 1, 4, 0, 8, 0.00,60.00,Wednesday
2695,-6.688800373165286
1929,18.000025309395185
3063,2291890.5803352568
3064,0.0
2,4, 1, 4, 0, 9, 0.00,60.00,Wednesday
2695,-6.152231327274858
1929,18.0002055121485
3063,2200959.8610096254
3064,0.0
2,4, 1, 4, 0,10, 0.00,60.00,Wednesday
2695,-6.13473392760406
1929,18.000420026365643
3063,2046272.8541601028
3064,0.0
2,4, 1, 4, 0,11, 0.00,60.00,Wednesday
2695,-6.128732443439923
1929,18.000510143271499
3063,1958752.9485681032
3064,0.0
2,4, 1, 4, 0,12, 0.00,60.00,Wednesday
2695,-6.1296754683248759
1929,18.00048940535987
3063,1898874.5618287659
3064,0.0
2,4, 1, 4, 0,13, 0.00,60.00,Wednesday
2695,-6.131489716026313
1929,18.000475325586856
3063,1863799.6892014789
3064,0.0
2,4, 1, 4, 0,14, 0.00,60.00,Wednesday
2695,-6.132095793579979
1929,18.00041125110258
3063,1778637.4167970238
3064,0.0
2,4, 1, 4, 0,15, 0.00,60.00,Wednesday
2695,-6.126655151596393
1929,18.000292675399789
3063,1573294.141232595
3064,0.0
2,4, 1, 4, 0,16, 0.00,60.00,Wednesday
2695,-6.116147553258178
1929,18.000224614570933
3063,1405712.1375932326
3064,0.0
2,4, 1, 4, 0,17, 0.00,60.00,Wednesday
2695,-6.105454966054772
1929,18.000223265218034
3063,1318659.3272312259
3064,0.0
2,4, 1, 4, 0,18, 0.00,60.00,Wednesday
2695,-6.099553201549195
1929,18.000247495243469
3063,1321517.805617809
3064,0.0
2,4, 1, 4, 0,19, 0.00,60.00,Wednesday
2695,-6.619233544763031
1929,18.000403226177537
3063,1793128.992558868
3064,0.0
2,4, 1, 4, 0,20, 0.00,60.00,Wednesday
2695,-6.631391982575152
1929,18.000275184466834
3063,1854184.741074694
3064,0.0
2,4, 1, 4, 0,21, 0.00,60.00,Wednesday
2695,-6.640122553317055
1929,18.00025537627594
3063,1975882.086059178
3064,0.0
2,4, 1, 4, 0,22, 0.00,60.00,Wednesday
2695,-6.646890175393178
1929,18.00019250556152
3063,1991799.388349888
3064,0.0
2,4, 1, 4, 0,23, 0.00,60.00,Wednesday
2695,-6.651975792226167
1929,18.00014777013592
3063,1999641.896966142
3064,0.0
2,4, 1, 4, 0,24, 0.00,60.00,Wednesday
2695,-6.656301430913737
1929,18.000131274324465
3063,2002419.0193125373
3064,0.0
2,5, 1, 5, 0, 1, 0.00,60.00,Thursday
2695,-6.660986338900916
1929,18.000118575533404
3063,2008882.037736135
3064,0.0
2,5, 1, 5, 0, 2, 0.00,60.00,Thursday
2695,-6.665310405282431
1929,18.00011264942893
3063,2016444.1215020444
3064,0.0
2,5, 1, 5, 0, 3, 0.00,60.00,Thursday
2695,-6.669335983274778
1929,18.00012712150124
3063,2020625.1676744614
3064,0.0
2,5, 1, 5, 0, 4, 0.00,60.00,Thursday
2695,-6.673957881222009
1929,18.000158496027355
3063,2022248.3894496929
3064,0.0
2,5, 1, 5, 0, 5, 0.00,60.00,Thursday
2695,-6.679325490198456
1929,18.000163743856189
3063,2033408.4309331759
3064,0.0
2,5, 1, 5, 0, 6, 0.00,60.00,Thursday
2695,-6.6846229774516099
1929,18.000150906528636
3063,2048866.1216658375
3064,0.0
2,5, 1, 5, 0, 7, 0.00,60.00,Thursday
2695,-6.701403791209877
1929,18.00016311744099
3063,2055182.939695628
3064,0.0
2,5, 1, 5, 0, 8, 0.00,60.00,Thursday
2695,-6.705500027294217
1929,18.00015561937448
3063,2067628.031923687
3064,0.0
2,5, 1, 5, 0, 9, 0.00,60.00,Thursday
2695,-6.170493218258762
1929,18.000226031734088
3063,2000933.9707958874
3064,0.0
2,5, 1, 5, 0,10, 0.00,60.00,Thursday
2695,-6.153089783089995
1929,18.0003656957516
3063,1859408.329103419
3064,0.0
2,5, 1, 5, 0,11, 0.00,60.00,Thursday
2695,-6.143414704248687
1929,18.00042264127065
3063,1767075.2815993149
3064,0.0
2,5, 1, 5, 0,12, 0.00,60.00,Thursday
2695,-6.139564302315276
1929,18.00041586357278
3063,1704808.903910892
3064,0.0
2,5, 1, 5, 0,13, 0.00,60.00,Thursday
2695,-6.137616776094685
1929,18.00039016249095
3063,1685019.2532499254
3064,0.0
2,5, 1, 5, 0,14, 0.00,60.00,Thursday
2695,-6.133629761526339
1929,18.00036417925889
3063,1622027.6455264672
3064,0.0
2,5, 1, 5, 0,15, 0.00,60.00,Thursday
2695,-6.128024445442399
1929,18.000320301544666
3063,1486139.3982165382
3064,0.0
2,5, 1, 5, 0,16, 0.00,60.00,Thursday
2695,-6.12281029214342
1929,18.000295134905703
3063,1392626.8078132398
3064,0.0
2,5, 1, 5, 0,17, 0.00,60.00,Thursday
2695,-6.118161332105276
1929,18.00026256526695
3063,1299506.310247633
3064,0.0
2,5, 1, 5, 0,18, 0.00,60.00,Thursday
2695,-6.113710060348391
1929,18.000237208776807
3063,1214574.6851207172
3064,0.0
2,5, 1, 5, 0,19, 0.00,60.00,Thursday
2695,-6.636113827853829
1929,18.00037593407833
3063,1614876.7365801717
3064,0.0
2,5, 1, 5, 0,20, 0.00,60.00,Thursday
2695,-6.648750257361551
1929,18.00025901340455
3063,1652675.7736827313
3064,0.0
2,5, 1, 5, 0,21, 0.00,60.00,Thursday
2695,-6.658081215121562
1929,18.000267967052819
3063,1822590.6719582547
3064,0.0
2,5, 1, 5, 0,22, 0.00,60.00,Thursday
2695,-6.6656740267394209
1929,18.000234718853926
3063,1838038.504527965
3064,0.0
2,5, 1, 5, 0,23, 0.00,60.00,Thursday
2695,-6.672197884103537
1929,18.00018663373991
3063,1854807.397053307
3064,0.0
2,5, 1, 5, 0,24, 0.00,60.00,Thursday
2695,-6.677266373627759
1929,18.00009251761078
3063,1884583.813587617
3064,0.0
2,6, 1, 6, 0, 1, 0.00,60.00,Friday
2695,-6.679678357542901
1929,18.000037947849625
3063,1901137.3286943897
3064,0.0
2,6, 1, 6, 0, 2, 0.00,60.00,Friday
2695,-6.681216158770472
1929,18.00000468796644
3063,1919437.645919062
3064,0.0
2,6, 1, 6, 0, 3, 0.00,60.00,Friday
2695,-6.681700240692092
1929,18.000000503747825
3063,1939658.6222416489
3064,0.0
2,6, 1, 6, 0, 4, 0.00,60.00,Friday
2695,-6.6812304023340769
1929,18.000000521430186
3063,1955672.5154904426
3064,0.0
2,6, 1, 6, 0, 5, 0.00,60.00,Friday
2695,-6.680248964539558
1929,18.000000532902605
3063,1968663.7400137806
3064,0.0
2,6, 1, 6, 0, 6, 0.00,60.00,Friday
2695,-6.679145589985837
1929,18.000000539457547
3063,1981350.8936269885
3064,0.0
2,6, 1, 6, 0, 7, 0.00,60.00,Friday
2695,-6.675400582729906
1929,18.000000546112305
3063,1982856.3566941589
3064,0.0
2,6, 1, 6, 0, 8, 0.00,60.00,Friday
2695,-6.674012444309679
1929,18.000019269613543
3063,1977563.1131572596
3064,0.0
2,6, 1, 6, 0, 9, 0.00,60.00,Friday
2695,-6.140506035180649
1929,18.00016685133068
3063,1857570.296300095
3064,0.0
2,6, 1, 6, 0,10, 0.00,60.00,Friday
2695,-6.12124886512398
1929,18.00029688358221
3063,1578875.0352849507
3064,0.0
2,6, 1, 6, 0,11, 0.00,60.00,Friday
2695,-6.112336672423345
1929,18.000306143870878
3063,1388348.285570824
3064,0.0
2,6, 1, 6, 0,12, 0.00,60.00,Friday
2695,-6.109779652762561
1929,18.00023919055929
3063,1223647.2462593215
3064,0.0
2,6, 1, 6, 0,13, 0.00,60.00,Friday
2695,-6.108045508698905
1929,18.00021007156545
3063,1151661.3098571276
3064,0.0
2,6, 1, 6, 0,14, 0.00,60.00,Friday
2695,-6.104637762852662
1929,18.000183409526114
3063,966772.0999890507
3064,0.0
2,6, 1, 6, 0,15, 0.00,60.00,Friday
2695,-6.075141380671755
1929,18.15853085914165
3063,538001.4740723091
3064,0.0
2,6, 1, 6, 0,16, 0.00,60.00,Friday
2695,-6.009744884822253
1929,18.42422519021683
3063,243333.694071776
3064,0.0
2,6, 1, 6, 0,17, 0.00,60.00,Friday
2695,-5.956670172454629
1929,18.567831060494645
3063,93273.6478967504
3064,0.0
2,6, 1, 6, 0,18, 0.00,60.00,Friday
2695,-5.935006436111585
1929,18.574971110111237
3063,85469.6250479466
3064,0.0
2,6, 1, 6, 0,19, 0.00,60.00,Friday
2695,-6.502333895386833
1929,18.025007799808635
3063,1024990.538628982
3064,0.0
2,6, 1, 6, 0,20, 0.00,60.00,Friday
2695,-6.534616803071182
1929,18.00014876082688
3063,1033203.4112252753
3064,0.0
2,6, 1, 6, 0,21, 0.00,60.00,Friday
2695,-6.53899069298422
1929,18.000231699725796
3063,1315762.86560546
3064,0.0
2,6, 1, 6, 0,22, 0.00,60.00,Friday
2695,-6.5406389936892739
1929,18.00019825951836
3063,1290747.839455398
3064,0.0
2,6, 1, 6, 0,23, 0.00,60.00,Friday
2695,-6.5424543065181999
1929,18.000188626994335
3063,1267658.0215679503
3064,0.0
2,6, 1, 6, 0,24, 0.00,60.00,Friday
2695,-6.545306948441144
1929,18.00018962709689
3063,1252576.2749685636
3064,0.0
2,7, 1, 7, 0, 1, 0.00,60.00,Saturday
2695,-6.549360734733528
1929,18.000181866884025
3063,1250052.7780169096
3064,0.0
2,7, 1, 7, 0, 2, 0.00,60.00,Saturday
2695,-6.554170583430424
1929,18.000186664494504
3063,1251535.2045664008
3064,0.0
2,7, 1, 7, 0, 3, 0.00,60.00,Saturday
2695,-6.559975959083881
1929,18.000204014375688
3063,1255845.9107345446
3064,0.0
2,7, 1, 7, 0, 4, 0.00,60.00,Saturday
2695,-6.567112333293363
1929,18.000227452143979
3063,1263136.144724812
3064,0.0
2,7, 1, 7, 0, 5, 0.00,60.00,Saturday
2695,-6.5758275693785299
1929,18.00025742299797
3063,1250563.5953524304
3064,0.0
2,7, 1, 7, 0, 6, 0.00,60.00,Saturday
2695,-6.591838747345233
1929,18.000230330859169
3063,1204626.8495182258
3064,0.0
2,7, 1, 7, 0, 7, 0.00,60.00,Saturday
2695,-6.404582589590068
1929,18.000159480342118
3063,1283746.5397552159
3064,0.0
2,7, 1, 7, 0, 8, 0.00,60.00,Saturday
2695,-6.419235277001364
1929,18.000098654366697
3063,1363206.1404021576
3064,0.0
2,7, 1, 7, 0, 9, 0.00,60.00,Saturday
2695,-5.953210739898657
1929,18.00006090040436
3063,1426823.8121688574
3064,0.0
2,7, 1, 7, 0,10, 0.00,60.00,Saturday
2695,-5.959722592669327
1929,18.000046625642324
3063,1477586.9395312949
3064,0.0
2,7, 1, 7, 0,11, 0.00,60.00,Saturday
2695,-5.965341378119892
1929,18.000034364332185
3063,1533566.29218136
3064,0.0
2,7, 1, 7, 0,12, 0.00,60.00,Saturday
2695,-5.969770952443864
1929,18.000023993993304
3063,1585051.1849473285
3064,0.0
2,7, 1, 7, 0,13, 0.00,60.00,Saturday
2695,-5.972390728393333
1929,18.0000019106899
3063,1632363.7044863594
3064,0.0
2,7, 1, 7, 0,14, 0.00,60.00,Saturday
2695,-5.972247907151513
1929,18.000000215383996
3063,1671368.2087841149
3064,0.0
2,7, 1, 7, 0,15, 0.00,60.00,Saturday
2695,-5.9684126635060938
1929,18.00000013666188
3063,1697146.3541594705
3064,0.0
2,7, 1, 7, 0,16, 0.00,60.00,Saturday
2695,-5.959929280526925
1929,18.000000088870473
3063,1687789.1634010217
3064,0.0
2,7, 1, 7, 0,17, 0.00,60.00,Saturday
2695,-5.948259461016562
1929,18.000000073090449
3063,1609238.2523153057
3064,0.0
2,7, 1, 7, 0,18, 0.00,60.00,Saturday
2695,-5.936888932332837
1929,18.00000006956491
3063,1507868.5057459004
3064,0.0
2,7, 1, 7, 0,19, 0.00,60.00,Saturday
2695,-6.39719778076655
1929,18.000000067855525
3063,1415054.4654222639
3064,0.0
2,7, 1, 7, 0,20, 0.00,60.00,Saturday
2695,-6.385428622061048
1929,18.000000067314006
3063,1336055.8369166149
3064,0.0
2,7, 1, 7, 0,21, 0.00,60.00,Saturday
2695,-6.375124451398816
1929,18.00000006815719
3063,1270866.1921256458
3064,0.0
2,7, 1, 7, 0,22, 0.00,60.00,Saturday
2695,-6.366895412382579
1929,18.000000070452093
3063,1220923.247451539
3064,0.0
2,7, 1, 7, 0,23, 0.00,60.00,Saturday
2695,-6.3609088055818889
1929,18.000000073680789
3063,1185005.0557613022
3064,0.0
2,7, 1, 7, 0,24, 0.00,60.00,Saturday
2695,-6.357194417226153
1929,18.000001491328257
3063,1161737.8990607064
3064,0.0
2,8, 1, 8, 0, 1, 0.00,60.00,Sunday
2695,-6.355463667842003
1929,18.000003274696565
3063,1157030.7168608499
3064,0.0
2,8, 1, 8, 0, 2, 0.00,60.00,Sunday
2695,-6.3549316315531849
1929,18.000004661493905
3063,1162981.2836300526
3064,0.0
2,8, 1, 8, 0, 3, 0.00,60.00,Sunday
2695,-6.3554098690603519
1929,18.000010734342977
3063,1174534.8274393248
3064,0.0
2,8, 1, 8, 0, 4, 0.00,60.00,Sunday
2695,-6.3568324179250299
1929,18.000016972988744
3063,1192451.1110692514
3064,0.0
2,8, 1, 8, 0, 5, 0.00,60.00,Sunday
2695,-6.359033490935672
1929,18.00001640379677
3063,1218281.146547754
3064,0.0
2,8, 1, 8, 0, 6, 0.00,60.00,Sunday
2695,-6.361753441381392
1929,18.00002308290411
3063,1244607.6390197904
3064,0.0
2,8, 1, 8, 0, 7, 0.00,60.00,Sunday
2695,-6.574115188817274
1929,18.00003368077011
3063,1272605.8972200324
3064,0.0
2,8, 1, 8, 0, 8, 0.00,60.00,Sunday
2695,-6.578193336347968
1929,18.000040532256784
3063,1304532.6498222626
3064,0.0
2,8, 1, 8, 0, 9, 0.00,60.00,Sunday
2695,-6.078707520118425
1929,18.000039886692588
3063,1341383.807761086
3064,0.0
2,8, 1, 8, 0,10, 0.00,60.00,Sunday
2695,-6.082455125532181
1929,18.00003286148654
3063,1381429.5698625895
3064,0.0
2,8, 1, 8, 0,11, 0.00,60.00,Sunday
2695,-6.086074956241419
1929,18.000011388831806
3063,1426418.9644616633
3064,0.0
2,8, 1, 8, 0,12, 0.00,60.00,Sunday
2695,-6.089226142076217
1929,18.00000015224391
3063,1465071.9970164919
3064,0.0
2,8, 1, 8, 0,13, 0.00,60.00,Sunday
2695,-6.09201372966919
1929,18.000003932947164
3063,1493280.8699496499
3064,0.0
2,8, 1, 8, 0,14, 0.00,60.00,Sunday
2695,-6.0942545838042829
1929,18.00000096016299
3063,1516318.1574016249
3064,0.0
2,8, 1, 8, 0,15, 0.00,60.00,Sunday
2695,-6.095355093422118
1929,18.000000105817607
3063,1528790.6832115087
3064,0.0
2,8, 1, 8, 0,16, 0.00,60.00,Sunday
2695,-6.094772519275548
1929,18.000000095256554
3063,1524753.4881242573
3064,0.0
2,8, 1, 8, 0,17, 0.00,60.00,Sunday
2695,-6.092291010720814
1929,18.00000008712568
3063,1500257.9584014225
3064,0.0
2,8, 1, 8, 0,18, 0.00,60.00,Sunday
2695,-6.088274771571534
1929,18.000000083212723
3063,1461410.9843148569
3064,0.0
2,8, 1, 8, 0,19, 0.00,60.00,Sunday
2695,-6.588547057180665
1929,18.000000084202264
3063,1407521.7694166387
3064,0.0
2,8, 1, 8, 0,20, 0.00,60.00,Sunday
2695,-6.582573568401231
1929,18.000000086565888
3063,1354267.2768067448
3064,0.0
2,8, 1, 8, 0,21, 0.00,60.00,Sunday
2695,-6.577570301910776
1929,18.000000088177129
3063,1320284.1103351613
3064,0.0
2,8, 1, 8, 0,22, 0.00,60.00,Sunday
2695,-6.573390175511375
1929,18.000000087686748
3063,1308112.2066112047
3064,0.0
2,8, 1, 8, 0,23, 0.00,60.00,Sunday
2695,-6.56973537622191
1929,18.00000009004858
3063,1296273.90005994
3064,0.0
2,8, 1, 8, 0,24, 0.00,60.00,Sunday
2695,-6.567392610681492
1929,18.00000010074648
3063,1282859.0266340408
3064,0.0
2,9, 1, 9, 0, 1, 0.00,60.00,Monday
2695,-6.56709997435433
1929,18.000002393773756
3063,1273672.0227495644
3064,0.0
2,9, 1, 9, 0, 2, 0.00,60.00,Monday
2695,-6.568406071639643
1929,18.00001908263852
3063,1277860.1320849383
3064,0.0
2,9, 1, 9, 0, 3, 0.00,60.00,Monday
2695,-6.57053618629072
1929,18.0000258321319
3063,1295728.7511918999
3064,0.0
2,9, 1, 9, 0, 4, 0.00,60.00,Monday
2695,-6.5732577753963989
1929,18.000019451062888
3063,1322802.5705444434
3064,0.0
2,9, 1, 9, 0, 5, 0.00,60.00,Monday
2695,-6.576199318775355
1929,18.000008830806715