Program Version,EnergyPlus, Version 8.7.0-78a111df4a, YMD=2019.05.28 05:48
1,5,Environment Title[],Latitude[deg],Longitude[deg],Time Zone[],Elevation[m]
2,6,Day of Simulation[],Month[],Day of Month[],DST Indicator[1=yes 0=no],Hour[],StartMinute[],EndMinute[],DayType
3,3,Cumulative Day of Simulation[],Month[],Day of Month[],DST Indicator[1=yes 0=no],DayType  ! When Daily Report Variables Requested
4,2,Cumulative Days of Simulation[],Month[]  ! When Monthly Report Variables Requested
5,1,Cumulative Days of Simulation[] ! When Run Period Report Variables Requested
4826,1,BEDROOM2.2,Zone Ideal Loads Zone Total Heating Energy [J] !Hourly
4827,1,BEDROOM2.2,Zone Ideal Loads Zone Total Cooling Energy [J] !Hourly
4973,1,BEDROOM2.2,Zone Thermal Comfort Fanger Model PMV [] !Hourly
End of Data Dictionary
1,RUNPERIOD,  29.58, 106.47,   8.00, 259.10
2,1, 1, 1, 0, 1, 0.00,60.00,Thursday
4973,-1.0817376692429915
4826,2388273.9534876265
4827,8.693818513579159e-8
2,1, 1, 1, 0, 2, 0.00,60.00,Thursday
4973,-1.0741257600252863
4826,2396951.198928997
4827,7.653397915419191e-8
2,1, 1, 1, 0, 3, 0.00,60.00,Thursday
4973,-1.0663457862790465
4826,2333565.278359094
4827,9.24956111703068e-8
2,1, 1, 1, 0, 4, 0.00,60.00,Thursday
4973,-1.0598726713918616
4826,2302247.328661972
4827,9.270024747820571e-8
2,1, 1, 1, 0, 5, 0.00,60.00,Thursday
4973,-1.0565772850170763
4826,2319805.30665317
4827,1.3639009921462276e-7
2,1, 1, 1, 0, 6, 0.00,60.00,Thursday
4973,-1.056433337221031
4826,2343002.80478692
4827,7.755716069368646e-8
2,1, 1, 1, 0, 7, 0.00,60.00,Thursday
4973,-1.0584183650909168
4826,2361397.6075928027
4827,9.300720194005408e-8
2,1, 1, 1, 0, 8, 0.00,60.00,Thursday
4973,-1.6827168360314638
4826,0.0
4827,0.0
2,1, 1, 1, 0, 9, 0.00,60.00,Thursday
4973,-2.077746065693231
4826,0.0
4827,0.0
2,1, 1, 1, 0,10, 0.00,60.00,Thursday
4973,-2.1154441499038207
4826,0.0
4827,0.0
2,1, 1, 1, 0,11, 0.00,60.00,Thursday
4973,-2.1215028550126124
4826,0.0
4827,0.0
2,1, 1, 1, 0,12, 0.00,60.00,Thursday
4973,-2.1159589699642806
4826,0.0
4827,0.0
2,1, 1, 1, 0,13, 0.00,60.00,Thursday
4973,-2.097232007657253
4826,0.0
4827,0.0
2,1, 1, 1, 0,14, 0.00,60.00,Thursday
4973,-2.060609185232514
4826,0.0
4827,0.0
2,1, 1, 1, 0,15, 0.00,60.00,Thursday
4973,-2.0144762156696984
4826,0.0
4827,0.0
2,1, 1, 1, 0,16, 0.00,60.00,Thursday
4973,-1.9554246576364523
4826,0.0
4827,0.0
2,1, 1, 1, 0,17, 0.00,60.00,Thursday
4973,-1.8876176213699572
4826,0.0
4827,0.0
2,1, 1, 1, 0,18, 0.00,60.00,Thursday
4973,-1.8268906145349056
4826,0.0
4827,0.0
2,1, 1, 1, 0,19, 0.00,60.00,Thursday
4973,-1.7802828382350187
4826,0.0
4827,0.0
2,1, 1, 1, 0,20, 0.00,60.00,Thursday
4973,-1.754792543941694
4826,0.0
4827,0.0
2,1, 1, 1, 0,21, 0.00,60.00,Thursday
4973,-1.7945341115769738
4826,0.0
4827,0.0
2,1, 1, 1, 0,22, 0.00,60.00,Thursday
4973,-1.2739888273655034
4826,2983630.424761302
4827,4.070557224622462e-8
2,1, 1, 1, 0,23, 0.00,60.00,Thursday
4973,-1.0916847540977369
4826,2275047.2060151787
4827,3.693685357575305e-8
2,1, 1, 1, 0,24, 0.00,60.00,Thursday
4973,-1.0869955549010675
4826,2171030.022214143
4827,3.652758095995523e-8
2,2, 1, 2, 0, 1, 0.00,60.00,Friday
4973,-1.084210026378031
4826,2361247.1998143617
4827,7.486805357488762e-8
2,2, 1, 2, 0, 2, 0.00,60.00,Friday
4973,-1.0821197487192454
4826,2358051.6270460507
4827,1.1694964996422641e-7
2,2, 1, 2, 0, 3, 0.00,60.00,Friday
4973,-1.0808375250972838
4826,2360103.5431930816
4827,3.079776433878578e-8
2,2, 1, 2, 0, 4, 0.00,60.00,Friday
4973,-1.0775876459194232
4826,2354763.345010625
4827,6.681375452899374e-8
2,2, 1, 2, 0, 5, 0.00,60.00,Friday
4973,-1.0735668755493573
4826,2342792.1815144608
4827,3.049080987693742e-8
2,2, 1, 2, 0, 6, 0.00,60.00,Friday
4973,-1.0695433833143753
4826,2334691.6215337275
4827,4.757794158649631e-8
2,2, 1, 2, 0, 7, 0.00,60.00,Friday
4973,-1.0656867483077508
4826,2322887.1576264656
4827,6.886011760798283e-8
2,2, 1, 2, 0, 8, 0.00,60.00,Friday
4973,-1.6508254662846405
4826,0.0
4827,0.0
2,2, 1, 2, 0, 9, 0.00,60.00,Friday
4973,-1.999020794740658
4826,0.0
4827,0.0
2,2, 1, 2, 0,10, 0.00,60.00,Friday
4973,-1.979932308977449
4826,0.0
4827,0.0
2,2, 1, 2, 0,11, 0.00,60.00,Friday
4973,-1.9623533405390286
4826,0.0
4827,0.0
2,2, 1, 2, 0,12, 0.00,60.00,Friday
4973,-1.9487936870841929
4826,0.0
4827,0.0
2,2, 1, 2, 0,13, 0.00,60.00,Friday
4973,-1.9334232091727997
4826,0.0
4827,0.0
2,2, 1, 2, 0,14, 0.00,60.00,Friday
4973,-1.9172782936187705
4826,0.0
4827,0.0
2,2, 1, 2, 0,15, 0.00,60.00,Friday
4973,-1.8897066975229585
4826,0.0
4827,0.0
2,2, 1, 2, 0,16, 0.00,60.00,Friday
4973,-1.8543703518106052
4826,0.0
4827,0.0
2,2, 1, 2, 0,17, 0.00,60.00,Friday
4973,-1.8327333780468105
4826,0.0
4827,0.0
2,2, 1, 2, 0,18, 0.00,60.00,Friday
4973,-1.854127306007272
4826,0.0
4827,0.0
2,2, 1, 2, 0,19, 0.00,60.00,Friday
4973,-1.896713364877947
4826,0.0
4827,0.0
2,2, 1, 2, 0,20, 0.00,60.00,Friday
4973,-1.9230923372419749
4826,0.0
4827,0.0
2,2, 1, 2, 0,21, 0.00,60.00,Friday
4973,-1.949849376358886
4826,0.0
4827,0.0
2,2, 1, 2, 0,22, 0.00,60.00,Friday
4973,-1.3213331999592475
4826,3289425.771931275
4827,8.571532816858962e-8
2,2, 1, 2, 0,23, 0.00,60.00,Friday
4973,-1.0981932636243693
4826,2298139.408085546
4827,5.7912075135391208e-8
2,2, 1, 2, 0,24, 0.00,60.00,Friday
4973,-1.0806611060269076
4826,2181209.0613645545
4827,6.139089236967266e-8
2,3, 1, 3, 0, 1, 0.00,60.00,Saturday
4973,-1.0733056523044109
4826,2384994.401712917
4827,6.573476308734495e-8
2,3, 1, 3, 0, 2, 0.00,60.00,Saturday
4973,-1.0707317131990518
4826,2417601.474321237
4827,5.806555236631539e-8
2,3, 1, 3, 0, 3, 0.00,60.00,Saturday
4973,-1.07291688287366
4826,2430041.3974678928
4827,6.59952092973981e-8
2,3, 1, 3, 0, 4, 0.00,60.00,Saturday
4973,-1.0747637975171576
4826,2427857.211183099
4827,9.044924809131771e-8
2,3, 1, 3, 0, 5, 0.00,60.00,Saturday
4973,-1.0750229339786573
4826,2415584.7464747799
4827,9.894165486912243e-8
2,3, 1, 3, 0, 6, 0.00,60.00,Saturday
4973,-1.073766997572644
4826,2388807.569841314
4827,1.0242047210340388e-7
2,3, 1, 3, 0, 7, 0.00,60.00,Saturday
4973,-1.0706770598098817
4826,2343910.9961886454
4827,2.6193447411060334e-8
2,3, 1, 3, 0, 8, 0.00,60.00,Saturday
4973,-1.065712408007411
4826,2294796.721905134
4827,4.417756827024277e-8
2,3, 1, 3, 0, 9, 0.00,60.00,Saturday
4973,-1.0615471262761616
4826,2298378.85847801
4827,1.9747403712244706e-8
2,3, 1, 3, 0,10, 0.00,60.00,Saturday
4973,-1.0570776126094815
4826,2247448.5221580618
4827,4.317826096666977e-8
2,3, 1, 3, 0,11, 0.00,60.00,Saturday
4973,-1.0534259392788157
4826,2256782.8626218636
4827,3.529976311256178e-8
2,3, 1, 3, 0,12, 0.00,60.00,Saturday
4973,-1.050540137007649
4826,2213831.2336101129
4827,5.474021236295812e-8
2,3, 1, 3, 0,13, 0.00,60.00,Saturday
4973,-1.0470608993149245
4826,2175073.357559296
4827,4.3587533582467589e-8
2,3, 1, 3, 0,14, 0.00,60.00,Saturday
4973,-1.0433849982961179
4826,2139859.265298632
4827,6.057234713807702e-8
2,3, 1, 3, 0,15, 0.00,60.00,Saturday
4973,-1.0389219929834266
4826,2072763.553616481
4827,8.390088623855263e-9
2,3, 1, 3, 0,16, 0.00,60.00,Saturday
4973,-1.03291007932821
4826,2055958.7847207238
4827,3.34580363414716e-8
2,3, 1, 3, 0,17, 0.00,60.00,Saturday
4973,-1.0283347704171045
4826,2086538.739520796
4827,4.0313352656085047e-8
2,3, 1, 3, 0,18, 0.00,60.00,Saturday
4973,-1.0242656212311355
4826,2070319.9822884023
4827,8.502638593199663e-8
2,3, 1, 3, 0,19, 0.00,60.00,Saturday
4973,-1.0181457675641284
4826,2038394.7048650259
4827,6.01630745222792e-8
2,3, 1, 3, 0,20, 0.00,60.00,Saturday
4973,-1.0112571768652077
4826,1898016.7967218634
4827,7.269704838108737e-8
2,3, 1, 3, 0,21, 0.00,60.00,Saturday
4973,-1.0036521079547026
4826,1828448.944597057
4827,2.9621105568367058e-8
2,3, 1, 3, 0,22, 0.00,60.00,Saturday
4973,-0.9959194268570049
4826,1802495.7098566227
4827,1.0129497240995989e-8
2,3, 1, 3, 0,23, 0.00,60.00,Saturday
4973,-0.9898562562160276
4826,1791107.3134518129
4827,3.8829739423817958e-8
2,3, 1, 3, 0,24, 0.00,60.00,Saturday
4973,-0.9840561260668252
4826,1725842.986096744
4827,7.469225238310173e-8
2,4, 1, 4, 0, 1, 0.00,60.00,Sunday
4973,-0.9807330509816401
4826,1863607.9910348454
4827,6.387883977752153
2,4, 1, 4, 0, 2, 0.00,60.00,Sunday
4973,-0.976712686018962
4826,1865214.1007160785
4827,2.9262992029543967e-8
2,4, 1, 4, 0, 3, 0.00,60.00,Sunday
4973,-0.9738339285391648
4826,1847778.717782671
4827,5.5354121286654848e-8
2,4, 1, 4, 0, 4, 0.00,60.00,Sunday
4973,-0.9709610974930547
4826,1835833.2067206617
4827,8.108713700494263e-8
2,4, 1, 4, 0, 5, 0.00,60.00,Sunday
4973,-0.9677369506587708
4826,1827926.994662056
4827,8.932374839787372e-8
2,4, 1, 4, 0, 6, 0.00,60.00,Sunday
4973,-0.9642962874910458
4826,1824529.563333209
4827,5.085212251287885e-8
2,4, 1, 4, 0, 7, 0.00,60.00,Sunday
4973,-0.9613108229032874
4826,1820029.228865756
4827,5.049400897405576e-8
2,4, 1, 4, 0, 8, 0.00,60.00,Sunday
4973,-0.9589345367260433
4826,1810192.4560065699
4827,4.122398422623519e-8
2,4, 1, 4, 0, 9, 0.00,60.00,Sunday
4973,-0.9585897309244653
4826,1850369.00738695
4827,3.304876372567378e-8
2,4, 1, 4, 0,10, 0.00,60.00,Sunday
4973,-0.9586649175186602
4826,1823700.2458277865
4827,9.050040716829244e-8
2,4, 1, 4, 0,11, 0.00,60.00,Sunday
4973,-0.9590082356481426
4826,1853473.9096535505
4827,5.248921297607012e-8
2,4, 1, 4, 0,12, 0.00,60.00,Sunday
4973,-0.9613944071785976
4826,1820366.3257895229
4827,5.417746251623612e-8
2,4, 1, 4, 0,13, 0.00,60.00,Sunday
4973,-0.9622562429048867
4826,1778185.9707276929
4827,2.6142288334085607e-8
2,4, 1, 4, 0,14, 0.00,60.00,Sunday
4973,-0.9624004353881865
4826,1723046.5258004098
4827,4.0313352656085047e-8
2,4, 1, 4, 0,15, 0.00,60.00,Sunday
4973,-0.9594374409482552
4826,1615750.2017817994
4827,1.0436451702844352e-8
2,4, 1, 4, 0,16, 0.00,60.00,Sunday
4973,-0.9517161356867153
4826,1563063.5390389236
4827,1.5705836631241256e-8
2,4, 1, 4, 0,17, 0.00,60.00,Sunday
4973,-0.9437757693838929
4826,1597530.6962405008
4827,1.744524524838198e-8
2,4, 1, 4, 0,18, 0.00,60.00,Sunday
4973,-0.9395638603386325
4826,1609046.158756938
4827,6.226059667824302e-8
2,4, 1, 4, 0,19, 0.00,60.00,Sunday
4973,-0.9359016469907339
4826,1622041.921836051
4827,7.361791176663246e-8
2,4, 1, 4, 0,20, 0.00,60.00,Sunday
4973,-0.9320759355151406
4826,1525281.6981436769
4827,3.248601387895178e-8
2,4, 1, 4, 0,21, 0.00,60.00,Sunday
4973,-0.9298946131405462
4826,1491815.4861944877
4827,5.678657544194721e-8
2,4, 1, 4, 0,22, 0.00,60.00,Sunday
4973,-0.9278547721047603
4826,1487855.9037110448
4827,5.509832590178121e-8
2,4, 1, 4, 0,23, 0.00,60.00,Sunday
4973,-0.9257956104268352
4826,1483485.882487656
4827,4.461071512196213e-8
2,4, 1, 4, 0,24, 0.00,60.00,Sunday
4973,-0.923647673992632
4826,1418161.1565221346
4827,4.445723789103795e-8
2,5, 1, 5, 0, 1, 0.00,60.00,Monday
4973,-0.9238556628091645
4826,1552431.1720770947
4827,0.579292691027149
2,5, 1, 5, 0, 2, 0.00,60.00,Monday
4973,-0.9231513855162832
4826,1548505.6179570873
4827,1.4733814168721438e-8
2,5, 1, 5, 0, 3, 0.00,60.00,Monday
4973,-0.9234934129139245
4826,1564400.5809452676
4827,7.658513823116664e-8
2,5, 1, 5, 0, 4, 0.00,60.00,Monday
4973,-0.9256436615214627
4826,1583380.6420113689
4827,4.5275783122633587e-8
2,5, 1, 5, 0, 5, 0.00,60.00,Monday
4973,-0.9289758236620137
4826,1596469.9118351169
4827,2.997921910719015e-8
2,5, 1, 5, 0, 6, 0.00,60.00,Monday
4973,-0.9319932641009723
4826,1610880.1853718544
4827,2.921183295256924e-8
2,5, 1, 5, 0, 7, 0.00,60.00,Monday
4973,-0.9348189665619531
4826,1625958.8499860429
4827,5.832134775118902e-9
2,5, 1, 5, 0, 8, 0.00,60.00,Monday
4973,-1.4492733456263652
4826,0.0
4827,0.0
2,5, 1, 5, 0, 9, 0.00,60.00,Monday
4973,-1.7368715668334288
4826,0.0
4827,0.0
2,5, 1, 5, 0,10, 0.00,60.00,Monday
4973,-1.758705016593701
4826,0.0
4827,0.0
2,5, 1, 5, 0,11, 0.00,60.00,Monday
4973,-1.770534772449661
4826,0.0
4827,0.0
2,5, 1, 5, 0,12, 0.00,60.00,Monday
4973,-1.7795657727096304
4826,0.0
4827,0.0
2,5, 1, 5, 0,13, 0.00,60.00,Monday
4973,-1.7838243683767048
4826,0.0
4827,0.0
2,5, 1, 5, 0,14, 0.00,60.00,Monday
4973,-1.780894292711225
4826,0.0
4827,0.0
2,5, 1, 5, 0,15, 0.00,60.00,Monday
4973,-1.7760629142290554
4826,0.0
4827,0.0
2,5, 1, 5, 0,16, 0.00,60.00,Monday
4973,-1.7695784105872013
4826,0.0
4827,0.0
2,5, 1, 5, 0,17, 0.00,60.00,Monday
4973,-1.7674255096906766
4826,0.0
4827,0.0
2,5, 1, 5, 0,18, 0.00,60.00,Monday
4973,-1.7669980962877726
4826,0.0
4827,0.0
2,5, 1, 5, 0,19, 0.00,60.00,Monday
4973,-1.7692599315094225
4826,0.0
4827,0.0
2,5, 1, 5, 0,20, 0.00,60.00,Monday
4973,-1.762062045846798
4826,0.0
4827,0.0
2,5, 1, 5, 0,21, 0.00,60.00,Monday
4973,-1.7764163177218516
4826,0.0
4827,0.0
2,5, 1, 5, 0,22, 0.00,60.00,Monday
4973,-1.229788034338111
4826,2750127.389414826
4827,3.113882485195063e-8
2,5, 1, 5, 0,23, 0.00,60.00,Monday
4973,-1.0390496333956428
4826,1902895.2259365973
4827,3.4788172342814508e-8
2,5, 1, 5, 0,24, 0.00,60.00,Monday
4973,-1.027071890768552
4826,1791667.5308939447
4827,9.617906471248716e-9
2,6, 1, 6, 0, 1, 0.00,60.00,Tuesday
4973,-1.01806810978256
4826,1977903.9813555016
4827,5.7936008467959259
2,6, 1, 6, 0, 2, 0.00,60.00,Tuesday
4973,-1.0107170481656714
4826,1976533.3789460527
4827,2.0463630789890886e-10
2,6, 1, 6, 0, 3, 0.00,60.00,Tuesday
4973,-1.0030306347985379
4826,1934060.6798526708
4827,3.4583536034915599e-8
2,6, 1, 6, 0, 4, 0.00,60.00,Tuesday
4973,-0.9957251923004968
4826,1904579.3278826578
4827,2.1589130483334885e-8
2,6, 1, 6, 0, 5, 0.00,60.00,Tuesday
4973,-0.9890065196100465
4826,1891862.5495060965
4827,8.901679393602535e-9
2,6, 1, 6, 0, 6, 0.00,60.00,Tuesday
4973,-0.9828135502489852
4826,1875958.6719248156
4827,5.269384928396903e-8
2,6, 1, 6, 0, 7, 0.00,60.00,Tuesday
4973,-0.9776782909211504
4826,1862173.5519915694
4827,7.694325176998973e-8
2,6, 1, 6, 0, 8, 0.00,60.00,Tuesday
4973,-1.4868573575988709
4826,0.0
4827,0.0
2,6, 1, 6, 0, 9, 0.00,60.00,Tuesday
4973,-1.789797234831389
4826,0.0
4827,0.0
2,6, 1, 6, 0,10, 0.00,60.00,Tuesday
4973,-1.7904599538080462
4826,0.0
4827,0.0
2,6, 1, 6, 0,11, 0.00,60.00,Tuesday
4973,-1.7740257473987174
4826,0.0
4827,0.0
2,6, 1, 6, 0,12, 0.00,60.00,Tuesday
4973,-1.7562021680672387
4826,0.0
4827,0.0
2,6, 1, 6, 0,13, 0.00,60.00,Tuesday
4973,-1.7201095300652889
4826,0.0
4827,0.0
2,6, 1, 6, 0,14, 0.00,60.00,Tuesday
4973,-1.617009512298326
4826,0.0
4827,0.0
2,6, 1, 6, 0,15, 0.00,60.00,Tuesday
4973,-1.58376017559427
4826,0.0
4827,0.0
2,6, 1, 6, 0,16, 0.00,60.00,Tuesday
4973,-1.5474481382389014
4826,0.0
4827,0.0
2,6, 1, 6, 0,17, 0.00,60.00,Tuesday
4973,-1.513375253098217
4826,0.0
4827,0.0
2,6, 1, 6, 0,18, 0.00,60.00,Tuesday
4973,-1.5145372432828717
4826,0.0
4827,0.0
2,6, 1, 6, 0,19, 0.00,60.00,Tuesday
4973,-1.5496269700950727
4826,0.0
4827,0.0
2,6, 1, 6, 0,20, 0.00,60.00,Tuesday
4973,-1.574385959155705
4826,0.0
4827,0.0
2,6, 1, 6, 0,21, 0.00,60.00,Tuesday
4973,-1.605007678028279
4826,0.0
4827,0.0
2,6, 1, 6, 0,22, 0.00,60.00,Tuesday
4973,-1.1364450561180806
4826,2342750.0589380005
4827,5.165702532394789e-8
2,6, 1, 6, 0,23, 0.00,60.00,Tuesday
4973,-0.9730366051514935
4826,1647438.9044841689
4827,4.1745806811377409e-8
2,6, 1, 6, 0,24, 0.00,60.00,Tuesday
4973,-0.9629111273157939
4826,1551992.99178142
4827,5.141487235960085e-8
2,7, 1, 7, 0, 1, 0.00,60.00,Wednesday
4973,-0.9585493293934071
4826,1750980.2193590345
4827,3.4897068092375e-8
2,7, 1, 7, 0, 2, 0.00,60.00,Wednesday
4973,-0.9565681650290142
4826,1769689.7295040785
4827,9.259792932425626e-9
2,7, 1, 7, 0, 3, 0.00,60.00,Wednesday
4973,-0.9568416182530313
4826,1803389.5834015287
4827,1.248281478183344e-8
2,7, 1, 7, 0, 4, 0.00,60.00,Wednesday
4973,-0.9590176684152332
4826,1853847.8140168603
4827,1.6370904631912709e-8
2,7, 1, 7, 0, 5, 0.00,60.00,Wednesday
4973,-0.9634196457070209
4826,1920515.2418105782
4827,3.724380803760141e-8
2,7, 1, 7, 0, 6, 0.00,60.00,Wednesday
4973,-0.969553655960147
4826,1984624.6586666264
4827,3.1309355108533057e-8
2,7, 1, 7, 0, 7, 0.00,60.00,Wednesday
4973,-0.9758406155181836
4826,2037722.9798650514
4827,2.5988811103161426e-8
2,7, 1, 7, 0, 8, 0.00,60.00,Wednesday
4973,-1.6104925766695327
4826,0.0
4827,0.0
2,7, 1, 7, 0, 9, 0.00,60.00,Wednesday
4973,-1.9529871438390534
4826,0.0
4827,0.0
2,7, 1, 7, 0,10, 0.00,60.00,Wednesday
4973,-1.9757035491621902
4826,0.0
4827,0.0
2,7, 1, 7, 0,11, 0.00,60.00,Wednesday
4973,-1.9668035121582679
4826,0.0
4827,0.0
2,7, 1, 7, 0,12, 0.00,60.00,Wednesday
4973,-1.9436875465136836
4826,0.0
4827,0.0
2,7, 1, 7, 0,13, 0.00,60.00,Wednesday
4973,-1.863582947921118
4826,0.0
4827,0.0
2,7, 1, 7, 0,14, 0.00,60.00,Wednesday
4973,-1.753878453481415
4826,0.0
4827,0.0
2,7, 1, 7, 0,15, 0.00,60.00,Wednesday
4973,-1.6644166348459022
4826,0.0
4827,0.0
2,7, 1, 7, 0,16, 0.00,60.00,Wednesday
4973,-1.5025842070550406
4826,0.0
4827,0.0
2,7, 1, 7, 0,17, 0.00,60.00,Wednesday
4973,-1.433734418372229
4826,0.0
4827,0.0
2,7, 1, 7, 0,18, 0.00,60.00,Wednesday
4973,-1.4501297346423785
4826,0.0
4827,0.0
2,7, 1, 7, 0,19, 0.00,60.00,Wednesday
4973,-1.4915846634540405
4826,0.0
4827,0.0
2,7, 1, 7, 0,20, 0.00,60.00,Wednesday
4973,-1.5184274951791564
4826,0.0
4827,0.0
2,7, 1, 7, 0,21, 0.00,60.00,Wednesday
4973,-1.5423416414133074
4826,0.0
4827,0.0
2,7, 1, 7, 0,22, 0.00,60.00,Wednesday
4973,-1.117351974152479
4826,2082952.7766328538
4827,4.817820808966644e-8
2,7, 1, 7, 0,23, 0.00,60.00,Wednesday
4973,-0.9713269850728696
4826,1475387.9783813819
4827,5.924221113673411e-8
2,7, 1, 7, 0,24, 0.00,60.00,Wednesday
4973,-0.9615648083936221
4826,1391769.7702925537
4827,1.6933654478634709e-8
2,8, 1, 8, 0, 1, 0.00,60.00,Thursday
4973,-0.9568720237207319
4826,1597978.3057173957
4827,6.848626281470598e-8
2,8, 1, 8, 0, 2, 0.00,60.00,Thursday
4973,-0.9528780755697163
4826,1611238.0503656083
4827,2.6398083718959243e-8
2,8, 1, 8, 0, 3, 0.00,60.00,Thursday
4973,-0.9495890266755548
4826,1638600.0324688208
4827,3.9187852962641048e-8
2,8, 1, 8, 0, 4, 0.00,60.00,Thursday
4973,-0.9471136854482962
4826,1663876.9408958075
4827,5.878177944396157e-8
2,8, 1, 8, 0, 5, 0.00,60.00,Thursday
4973,-0.9451941421580057
4826,1678778.23188419
4827,4.241087481204886e-8
2,8, 1, 8, 0, 6, 0.00,60.00,Thursday
4973,-0.9432284534249392
4826,1692823.8773423159
4827,3.821583050012123e-8
2,8, 1, 8, 0, 7, 0.00,60.00,Thursday
4973,-0.9422305143608993
4826,1697635.3622673848
4827,4.282014742784668e-8
2,8, 1, 8, 0, 8, 0.00,60.00,Thursday
4973,-1.4447594462927474
4826,0.0
4827,0.0
2,8, 1, 8, 0, 9, 0.00,60.00,Thursday
4973,-1.7332086513128884
4826,0.0
4827,0.0
2,8, 1, 8, 0,10, 0.00,60.00,Thursday
4973,-1.7408269709730178
4826,0.0
4827,0.0
2,8, 1, 8, 0,11, 0.00,60.00,Thursday
4973,-1.7286544897404995
4826,0.0
4827,0.0
2,8, 1, 8, 0,12, 0.00,60.00,Thursday
4973,-1.7077636806497956
4826,0.0
4827,0.0
2,8, 1, 8, 0,13, 0.00,60.00,Thursday
4973,-1.6722264305422059
4826,0.0
4827,0.0
2,8, 1, 8, 0,14, 0.00,60.00,Thursday
4973,-1.633421679806198
4826,0.0
4827,0.0
2,8, 1, 8, 0,15, 0.00,60.00,Thursday
4973,-1.5994126087885113
4826,0.0
4827,0.0
2,8, 1, 8, 0,16, 0.00,60.00,Thursday
4973,-1.5699344027828222
4826,0.0
4827,0.0
2,8, 1, 8, 0,17, 0.00,60.00,Thursday
4973,-1.543384099346155
4826,0.0
4827,0.0
2,8, 1, 8, 0,18, 0.00,60.00,Thursday
4973,-1.5552562517894378
4826,0.0
4827,0.0
2,8, 1, 8, 0,19, 0.00,60.00,Thursday
4973,-1.5805653562720413
4826,0.0
4827,0.0
2,8, 1, 8, 0,20, 0.00,60.00,Thursday
4973,-1.5963709332240284
4826,0.0
4827,0.0
2,8, 1, 8, 0,21, 0.00,60.00,Thursday
4973,-1.6096965172942293
4826,0.0
4827,0.0
2,8, 1, 8, 0,22, 0.00,60.00,Thursday
4973,-1.1332049169768688
4826,2225128.060648539
4827,6.365723947965307e-8
2,8, 1, 8, 0,23, 0.00,60.00,Thursday
4973,-0.967791903602092
4826,1506239.7317994089
4827,3.4992808650713417e-8
2,8, 1, 8, 0,24, 0.00,60.00,Thursday
4973,-0.9536019550340249
4826,1422487.0049268553
4827,2.8393287720973605e-8
2,9, 1, 9, 0, 1, 0.00,60.00,Friday
4973,-0.9478219324123751
4826,1643395.3152005415
4827,4.682273616448843e-8
2,9, 1, 9, 0, 2, 0.00,60.00,Friday
4973,-0.9457412511796197
4826,1675421.5902515928
4827,1.4273382475948893e-8
2,9, 1, 9, 0, 3, 0.00,60.00,Friday
4973,-0.9446097098280676
4826,1687441.4894622432
4827,5.269384928396903e-8
2,9, 1, 9, 0, 4, 0.00,60.00,Friday
4973,-0.9426925806355884
4826,1682761.023828939
4827,7.054836714814883e-8
2,9, 1, 9, 0, 5, 0.00,60.00,Friday
4973,-0.9399796733602062
4826,1676865.903388217
4827,4.972662281943485e-8
2,9, 1, 9, 0, 6, 0.00,60.00,Friday
4973,-0.9372753034436028
4826,1673811.7458439533
4827,8.620304470241536e-8
2,9, 1, 9, 0, 7, 0.00,60.00,Friday
4973,-0.9355701346294787
4826,1671537.5931416692
4827,5.1466031436575579e-8
2,9, 1, 9, 0, 8, 0.00,60.00,Friday
4973,-1.4284718515546793
4826,0.0
4827,0.0
2,9, 1, 9, 0, 9, 0.00,60.00,Friday
4973,-1.7213059220935243
4826,0.0
4827,0.0
2,9, 1, 9, 0,10, 0.00,60.00,Friday
4973,-1.746790775698991
4826,0.0
4827,0.0
2,9, 1, 9, 0,11, 0.00,60.00,Friday
4973,-1.7520657887316325
4826,0.0
4827,0.0
2,9, 1, 9, 0,12, 0.00,60.00,Friday
4973,-1.7521583951814935
4826,0.0
4827,0.0
2,9, 1, 9, 0,13, 0.00,60.00,Friday
4973,-1.7516069138084519
4826,0.0
4827,0.0
2,9, 1, 9, 0,14, 0.00,60.00,Friday
4973,-1.7459863129443774
4826,0.0
4827,0.0
2,9, 1, 9, 0,15, 0.00,60.00,Friday
4973,-1.7443014854801207
4826,0.0
4827,0.0
2,9, 1, 9, 0,16, 0.00,60.00,Friday
4973,-1.7424227464018092
4826,0.0
4827,0.0
2,9, 1, 9, 0,17, 0.00,60.00,Friday
4973,-1.7471787262111763
4826,0.0
4827,0.0
2,9, 1, 9, 0,18, 0.00,60.00,Friday
4973,-1.758015761870229
4826,0.0
4827,0.0
2,9, 1, 9, 0,19, 0.00,60.00,Friday
4973,-1.7663376810633496
4826,0.0
4827,0.0
2,9, 1, 9, 0,20, 0.00,60.00,Friday
4973,-1.7586596873078904
4826,0.0
4827,0.0
2,9, 1, 9, 0,21, 0.00,60.00,Friday
4973,-1.7587605315213316
4826,0.0
4827,0.0
2,9, 1, 9, 0,22, 0.00,60.00,Friday
4973,-1.2098430051243515
4826,2668054.30021552
4827,3.3606397664698309e-8
2,9, 1, 9, 0,23, 0.00,60.00,Friday
4973,-1.0239742492453319
4826,1822190.0834230844
4827,2.5630697564338335e-8
2,9, 1, 9, 0,24, 0.00,60.00,Friday
4973,-1.0110616045287713
4826,1688357.9630402406
4827,3.668105819087941e-8
2,10, 1,10, 0, 1, 0.00,60.00,Saturday
4973,-1.003859022739514
4826,1849645.2301552294
4827,2.000758764803631
2,10, 1,10, 0, 2, 0.00,60.00,Saturday
4973,-0.998387615360413
4826,1829213.7602591012
4827,5.269384928396903e-8
2,10, 1,10, 0, 3, 0.00,60.00,Saturday
4973,-0.9935864362156812
4826,1797833.1270686887
4827,8.1956841313513e-8
2,10, 1,10, 0, 4, 0.00,60.00,Saturday
4973,-0.9889100341614556
4826,1775534.932143387
4827,4.5224624045658859e-8
2,10, 1,10, 0, 5, 0.00,60.00,Saturday
4973,-0.9840689045407123
4826,1763337.4004946633
4827,3.2383695725002329e-8
2,10, 1,10, 0, 6, 0.00,60.00,Saturday
4973,-0.9796433813252097
4826,1758158.2738243635
4827,3.7908876038272868e-8
2,10, 1,10, 0, 7, 0.00,60.00,Saturday
4973,-0.9761152090165437
4826,1752399.5688984399
4827,3.545324034348596e-8
2,10, 1,10, 0, 8, 0.00,60.00,Saturday
4973,-0.9734955744669643
4826,1740238.6178796287
4827,5.201854946790263e-8
2,10, 1,10, 0, 9, 0.00,60.00,Saturday
4973,-0.9714202399245535
4826,1792790.822780222
4827,4.1387693272554318e-8
2,10, 1,10, 0,10, 0.00,60.00,Saturday
4973,-0.968071440351355
4826,1762572.599510731
4827,4.353637450549286e-8
2,10, 1,10, 0,11, 0.00,60.00,Saturday
4973,-0.9622907447073875
4826,1754440.3418928832
4827,4.353637450549286e-8
2,10, 1,10, 0,12, 0.00,60.00,Saturday
4973,-0.9550586229446894
4826,1666304.8987323433
4827,4.466187419893686e-8
2,10, 1,10, 0,13, 0.00,60.00,Saturday
4973,-0.9473614673836136
4826,1567309.9629093386
4827,4.312710188969504e-8
2,10, 1,10, 0,14, 0.00,60.00,Saturday
4973,-0.9503226416277119
4826,1515147.8357319739
4827,2.9774582799291239e-8
2,10, 1,10, 0,15, 0.00,60.00,Saturday
4973,-0.9438577316993135
4826,1369954.9853282199
4827,6.01630745222792e-8
2,10, 1,10, 0,16, 0.00,60.00,Saturday
4973,-0.9280999880669489
4826,1276758.1106033102
4827,4.650360097002704e-8
2,10, 1,10, 0,17, 0.00,60.00,Saturday
4973,-0.9099550833879266
4826,1294007.7789592688
4827,2.112869879056234e-8
2,10, 1,10, 0,18, 0.00,60.00,Saturday
4973,-0.8898682422013988
4826,1254640.729146303
4827,5.269384928396903e-8
2,10, 1,10, 0,19, 0.00,60.00,Saturday
4973,-0.8941437494009417
4826,1324773.9413782974
4827,2.4300561562995428e-8
2,10, 1,10, 0,20, 0.00,60.00,Saturday
4973,-0.894981272775325
4826,1250868.8077238892
4827,4.256435204297304e-8
2,10, 1,10, 0,21, 0.00,60.00,Saturday
4973,-0.8943966135506383
4826,1231050.184149633
4827,3.545324034348596e-8
2,10, 1,10, 0,22, 0.00,60.00,Saturday
4973,-0.8896941014501785
4826,1218677.5601980102
4827,2.9314151106518694e-8
2,10, 1,10, 0,23, 0.00,60.00,Saturday
4973,-0.8829739632291824
4826,1218807.0098685553
4827,3.253717295592651e-8
2,10, 1,10, 0,24, 0.00,60.00,Saturday
4973,-0.8768997748297811
4826,1198162.1337111123
4827,4.558273758448195e-8
2,11, 1,11, 0, 1, 0.00,60.00,Sunday
4973,-0.8779958421398038
4826,1400203.6288876287
4827,5.982323208237566e-8
2,11, 1,11, 0, 2, 0.00,60.00,Sunday
4973,-0.883453727320094
4826,1467095.722223642
4827,4.604316927725449e-9
2,11, 1,11, 0, 3, 0.00,60.00,Sunday
4973,-0.890494367699279
4826,1503893.8177588783
4827,3.432774065004196e-8
2,11, 1,11, 0, 4, 0.00,60.00,Sunday
4973,-0.8947472890527493
4826,1519722.8871871664
4827,4.292246558179613e-8
2,11, 1,11, 0, 5, 0.00,60.00,Sunday
4973,-0.8967433103900598
4826,1537949.3317470519
4827,1.3915268937125802e-8
2,11, 1,11, 0, 6, 0.00,60.00,Sunday
4973,-0.8996210133931437
4826,1561323.8875734839
4827,3.5913672036258507e-8
2,11, 1,11, 0, 7, 0.00,60.00,Sunday
4973,-0.9034126648597087
4826,1581958.2830099194
4827,4.7833736971369947e-8
2,11, 1,11, 0, 8, 0.00,60.00,Sunday
4973,-0.9058461048492252
4826,1570734.4457874913
4827,6.042910172254779e-8
2,11, 1,11, 0, 9, 0.00,60.00,Sunday
4973,-0.9057761013953712
4826,1556490.9579743476
4827,3.069544618483633e-8
2,11, 1,11, 0,10, 0.00,60.00,Sunday
4973,-0.9017333756294729
4826,1484851.1966812185
4827,2.9416469260468149e-8
2,11, 1,11, 0,11, 0.00,60.00,Sunday
4973,-0.8959165890327836
4826,1489499.9514466117
4827,3.8625103115919049e-8
2,11, 1,11, 0,12, 0.00,60.00,Sunday
4973,-0.8912438805315776
4826,1454098.2244500672
4827,6.507434591185302e-8
2,11, 1,11, 0,13, 0.00,60.00,Sunday
4973,-0.88803252289454
4826,1425601.7432941634
4827,5.8832938520936298e-8
2,11, 1,11, 0,14, 0.00,60.00,Sunday
4973,-0.885377057149625
4826,1407702.418903148
4827,9.873701856122353e-9
2,11, 1,11, 0,15, 0.00,60.00,Sunday
4973,-0.8829617584547133
4826,1321923.5830530227
4827,2.3533175408374519e-8
2,11, 1,11, 0,16, 0.00,60.00,Sunday
4973,-0.8800297333680826
4826,1295608.035990353
4827,5.228457666817121e-8
2,11, 1,11, 0,17, 0.00,60.00,Sunday
4973,-0.8789179633525258
4826,1338314.5565405135
4827,2.020783540501725e-8
2,11, 1,11, 0,18, 0.00,60.00,Sunday
4973,-0.8791682835174064
4826,1331248.9360492044
4827,4.1796965888352136e-8
2,11, 1,11, 0,19, 0.00,60.00,Sunday
4973,-0.8775628241903819
4826,1311927.958441855
4827,7.315748007385992e-8
2,11, 1,11, 0,20, 0.00,60.00,Sunday
4973,-0.8756076426031633
4826,1174340.4784565434
4827,2.8470026336435695e-8
2,11, 1,11, 0,21, 0.00,60.00,Sunday
4973,-0.8734407662957912
4826,1119658.497223315
4827,3.473701326583978e-8
2,11, 1,11, 0,22, 0.00,60.00,Sunday
4973,-0.8712089430773715
4826,1104421.2352820475
4827,3.125819603155833e-8
2,11, 1,11, 0,23, 0.00,60.00,Sunday
4973,-0.8708518365176523
4826,1094914.2097132533
4827,2.9672264645341785e-8
2,11, 1,11, 0,24, 0.00,60.00,Sunday
4973,-0.8708149012161085
4826,1036594.6191511117
4827,7.5203843152849e-9
2,12, 1,12, 0, 1, 0.00,60.00,Monday
4973,-0.8725246186015365
4826,1182124.8311148596
4827,3.552358407432621e-8
2,12, 1,12, 0, 2, 0.00,60.00,Monday
4973,-0.8743852101065393
4826,1196315.3652858507
4827,2.8137492336099969e-8
2,12, 1,12, 0, 3, 0.00,60.00,Monday
4973,-0.8767501701634515
4826,1229601.1310871726
4827,3.0746605261811058e-8
2,12, 1,12, 0, 4, 0.00,60.00,Monday
4973,-0.8786732748613267
4826,1260344.1282971914
4827,2.4709834178793245e-8
2,12, 1,12, 0, 5, 0.00,60.00,Monday
4973,-0.8791001071681949
4826,1288902.1408688874
4827,2.1537971406360158e-8
2,12, 1,12, 0, 6, 0.00,60.00,Monday
4973,-0.878003389293006
4826,1315622.6697941963
4827,2.5119106794591063e-8
2,12, 1,12, 0, 7, 0.00,60.00,Monday
4973,-0.8758100977756069
4826,1334563.2955109138
4827,6.71207089908421e-8
2,12, 1,12, 0, 8, 0.00,60.00,Monday
4973,-1.3250016960840494
4826,0.0
4827,0.0
2,12, 1,12, 0, 9, 0.00,60.00,Monday
4973,-1.570911926589108
4826,0.0
4827,0.0
2,12, 1,12, 0,10, 0.00,60.00,Monday
4973,-1.5756464533033406
4826,0.0
4827,0.0
2,12, 1,12, 0,11, 0.00,60.00,Monday
4973,-1.57861518719137
4826,0.0
4827,0.0
2,12, 1,12, 0,12, 0.00,60.00,Monday
4973,-1.5859148736625953
4826,0.0
4827,0.0
2,12, 1,12, 0,13, 0.00,60.00,Monday
4973,-1.5900826670211786
4826,0.0
4827,0.0
2,12, 1,12, 0,14, 0.00,60.00,Monday
4973,-1.5971920708363059
4826,0.0
4827,0.0
2,12, 1,12, 0,15, 0.00,60.00,Monday
4973,-1.5973709394685208
4826,0.0
4827,0.0
2,12, 1,12, 0,16, 0.00,60.00,Monday
4973,-1.5907603333281735
4826,0.0
4827,0.0
2,12, 1,12, 0,17, 0.00,60.00,Monday
4973,-1.5814608633870627
4826,0.0
4827,0.0
2,12, 1,12, 0,18, 0.00,60.00,Monday
4973,-1.5734534690978035
4826,0.0
4827,0.0
2,12, 1,12, 0,19, 0.00,60.00,Monday
4973,-1.57335304454097
4826,0.0
4827,0.0
2,12, 1,12, 0,20, 0.00,60.00,Monday
4973,-1.5683379927573987
4826,0.0
4827,0.0
2,12, 1,12, 0,21, 0.00,60.00,Monday
4973,-1.5723713717822928
4826,0.0
4827,0.0
2,12, 1,12, 0,22, 0.00,60.00,Monday
4973,-1.1088964643417776
4826,2136915.540170351
4827,4.795651875610929e-8
2,12, 1,12, 0,23, 0.00,60.00,Monday
4973,-0.9522682446340626
4826,1440630.1637663623
4827,0.0
2,12, 1,12, 0,24, 0.00,60.00,Monday
4973,-0.9413680286220367
4826,1328447.6344719022
4827,9.254677024728153e-8
2,13, 1,13, 0, 1, 0.00,60.00,Tuesday
4973,-0.9348731484545874
4826,1505897.7910884263
4827,4.658459402779158
2,13, 1,13, 0, 2, 0.00,60.00,Tuesday
4973,-0.9293818599078305
4826,1496983.6820370474
4827,4.1029579733731228e-8
2,13, 1,13, 0, 3, 0.00,60.00,Tuesday
4973,-0.9246155104295001
4826,1490782.6758589487
4827,1.1572183211683296e-7
2,13, 1,13, 0, 4, 0.00,60.00,Tuesday
4973,-0.9204024006556095
4826,1485292.6789564565
4827,4.184812496532686e-8
2,13, 1,13, 0, 5, 0.00,60.00,Tuesday
4973,-0.9164240676683731
4826,1484748.5774833463
4827,7.279936653503683e-8
2,13, 1,13, 0, 6, 0.00,60.00,Tuesday
4973,-0.9125977852147119
4826,1488525.9955319996
4827,4.558273758448195e-8
2,13, 1,13, 0, 7, 0.00,60.00,Tuesday
4973,-0.9099729414265275
4826,1490180.7139072736
4827,2.2714630176778884e-8