Program Version,EnergyPlus, Version 8.7.0-78a111df4a, YMD=2019.05.27 21:29
1,5,Environment Title[],Latitude[deg],Longitude[deg],Time Zone[],Elevation[m]
2,6,Day of Simulation[],Month[],Day of Month[],DST Indicator[1=yes 0=no],Hour[],StartMinute[],EndMinute[],DayType
3,3,Cumulative Day of Simulation[],Month[],Day of Month[],DST Indicator[1=yes 0=no],DayType  ! When Daily Report Variables Requested
4,2,Cumulative Days of Simulation[],Month[]  ! When Monthly Report Variables Requested
5,1,Cumulative Days of Simulation[] ! When Run Period Report Variables Requested
4826,1,BEDROOM2.2,Zone Ideal Loads Zone Total Heating Energy [J] !Hourly
4827,1,BEDROOM2.2,Zone Ideal Loads Zone Total Cooling Energy [J] !Hourly
4973,1,BEDROOM2.2,Zone Thermal Comfort Fanger Model PMV [] !Hourly
End of Data Dictionary
1,RUNPERIOD,  29.58, 106.47,   8.00, 259.10
2,1, 1, 1, 0, 1, 0.00,60.00,Thursday
4973,-1.0487193041671384
4826,2220056.070874298
4827,7.113716161587615e-8
2,1, 1, 1, 0, 2, 0.00,60.00,Thursday
4973,-1.0414275790762573
4826,2231423.988310237
4827,1.3505996321327985e-7
2,1, 1, 1, 0, 3, 0.00,60.00,Thursday
4973,-1.0338131049600088
4826,2169832.363789233
4827,1.0589928933768533e-7
2,1, 1, 1, 0, 4, 0.00,60.00,Thursday
4973,-1.0274807086198324
4826,2139845.3877651195
4827,5.20799403602723e-8
2,1, 1, 1, 0, 5, 0.00,60.00,Thursday
4973,-1.0241291876739776
4826,2157304.531801687
4827,4.246203388902359e-8
2,1, 1, 1, 0, 6, 0.00,60.00,Thursday
4973,-1.0238480927073715
4826,2179626.0851433279
4827,3.5913672036258507e-8
2,1, 1, 1, 0, 7, 0.00,60.00,Thursday
4973,-1.0255647145798808
4826,2196435.400298205
4827,6.200480129336938e-8
2,1, 1, 1, 0, 8, 0.00,60.00,Thursday
4973,-1.6313143242647055
4826,0.0
4827,0.0
2,1, 1, 1, 0, 9, 0.00,60.00,Thursday
4973,-2.007510393018509
4826,0.0
4827,0.0
2,1, 1, 1, 0,10, 0.00,60.00,Thursday
4973,-2.044734142392114
4826,0.0
4827,0.0
2,1, 1, 1, 0,11, 0.00,60.00,Thursday
4973,-2.0508724148139247
4826,0.0
4827,0.0
2,1, 1, 1, 0,12, 0.00,60.00,Thursday
4973,-2.0460929789121828
4826,0.0
4827,0.0
2,1, 1, 1, 0,13, 0.00,60.00,Thursday
4973,-2.0284404997240355
4826,0.0
4827,0.0
2,1, 1, 1, 0,14, 0.00,60.00,Thursday
4973,-1.9926009748949559
4826,0.0
4827,0.0
2,1, 1, 1, 0,15, 0.00,60.00,Thursday
4973,-1.9468359540976464
4826,0.0
4827,0.0
2,1, 1, 1, 0,16, 0.00,60.00,Thursday
4973,-1.8879980937981725
4826,0.0
4827,0.0
2,1, 1, 1, 0,17, 0.00,60.00,Thursday
4973,-1.8205851283786912
4826,0.0
4827,0.0
2,1, 1, 1, 0,18, 0.00,60.00,Thursday
4973,-1.7610052954740916
4826,0.0
4827,0.0
2,1, 1, 1, 0,19, 0.00,60.00,Thursday
4973,-1.715382049820871
4826,0.0
4827,0.0
2,1, 1, 1, 0,20, 0.00,60.00,Thursday
4973,-1.6906768066952867
4826,0.0
4827,0.0
2,1, 1, 1, 0,21, 0.00,60.00,Thursday
4973,-1.7298658850534417
4826,0.0
4827,0.0
2,1, 1, 1, 0,22, 0.00,60.00,Thursday
4973,-1.2327251527654109
4826,2825040.434777643
4827,3.887066668539774e-8
2,1, 1, 1, 0,23, 0.00,60.00,Thursday
4973,-1.0584012716707825
4826,2102146.258092296
4827,8.318465916090645e-8
2,1, 1, 1, 0,24, 0.00,60.00,Thursday
4973,-1.0546065459428876
4826,2004697.3719036813
4827,5.0749804358929398e-8
2,2, 1, 2, 0, 1, 0.00,60.00,Friday
4973,-1.0522999837691332
4826,2198670.876403556
4827,4.199261060090397e-8
2,2, 1, 2, 0, 2, 0.00,60.00,Friday
4973,-1.0504692754604262
4826,2197451.49940913
4827,1.4938450476620347e-8
2,2, 1, 2, 0, 3, 0.00,60.00,Friday
4973,-1.0493745969039826
4826,2200996.03742502
4827,7.315748007385992e-8
2,2, 1, 2, 0, 4, 0.00,60.00,Friday
4973,-1.0461986598287656
4826,2196698.941426891
4827,5.821902959723957e-8
2,2, 1, 2, 0, 5, 0.00,60.00,Friday
4973,-1.0421252526416947
4826,2184981.884230553
4827,8.993765732157044e-8
2,2, 1, 2, 0, 6, 0.00,60.00,Friday
4973,-1.037919929285747
4826,2176238.7312807647
4827,6.006075636832975e-8
2,2, 1, 2, 0, 7, 0.00,60.00,Friday
4973,-1.0338268107712197
4826,2163423.3064801215
4827,3.70391717297025e-8
2,2, 1, 2, 0, 8, 0.00,60.00,Friday
4973,-1.60143375272929
4826,0.0
4827,0.0
2,2, 1, 2, 0, 9, 0.00,60.00,Friday
4973,-1.931361028567214
4826,0.0
4827,0.0
2,2, 1, 2, 0,10, 0.00,60.00,Friday
4973,-1.9111271399449428
4826,0.0
4827,0.0
2,2, 1, 2, 0,11, 0.00,60.00,Friday
4973,-1.8935180870650779
4826,0.0
4827,0.0
2,2, 1, 2, 0,12, 0.00,60.00,Friday
4973,-1.8807453266455015
4826,0.0
4827,0.0
2,2, 1, 2, 0,13, 0.00,60.00,Friday
4973,-1.8662211522245172
4826,0.0
4827,0.0
2,2, 1, 2, 0,14, 0.00,60.00,Friday
4973,-1.8507987932992154
4826,0.0
4827,0.0
2,2, 1, 2, 0,15, 0.00,60.00,Friday
4973,-1.824374228751798
4826,0.0
4827,0.0
2,2, 1, 2, 0,16, 0.00,60.00,Friday
4973,-1.7901224801181242
4826,0.0
4827,0.0
2,2, 1, 2, 0,17, 0.00,60.00,Friday
4973,-1.7690245685825644
4826,0.0
4827,0.0
2,2, 1, 2, 0,18, 0.00,60.00,Friday
4973,-1.7899838122898009
4826,0.0
4827,0.0
2,2, 1, 2, 0,19, 0.00,60.00,Friday
4973,-1.831746798020644
4826,0.0
4827,0.0
2,2, 1, 2, 0,20, 0.00,60.00,Friday
4973,-1.8585975253539125
4826,0.0
4827,0.0
2,2, 1, 2, 0,21, 0.00,60.00,Friday
4973,-1.8861761695443474
4826,0.0
4827,0.0
2,2, 1, 2, 0,22, 0.00,60.00,Friday
4973,-1.2820882435328074
4826,3105377.836284727
4827,5.945707926002797e-8
2,2, 1, 2, 0,23, 0.00,60.00,Friday
4973,-1.0681431527784307
4826,2145066.9293970095
4827,6.313030098681338e-8
2,2, 1, 2, 0,24, 0.00,60.00,Friday
4973,-1.0510224020992292
4826,2032133.5881587738
4827,7.909193300292827e-8
2,3, 1, 3, 0, 1, 0.00,60.00,Saturday
4973,-1.0437872974671215
4826,2236925.9325150756
4827,8.085707618606235e-8
2,3, 1, 3, 0, 2, 0.00,60.00,Saturday
4973,-1.0412713944590802
4826,2269952.233180365
4827,8.523102223989554e-8
2,3, 1, 3, 0, 3, 0.00,60.00,Saturday
4973,-1.0433885999782334
4826,2281767.6301327466
4827,3.4992808650713417e-8
2,3, 1, 3, 0, 4, 0.00,60.00,Saturday
4973,-1.0450708246546632
4826,2278683.1127784906
4827,7.244125299621374e-8
2,3, 1, 3, 0, 5, 0.00,60.00,Saturday
4973,-1.045113698489303
4826,2265639.379250762
4827,7.980816008057445e-8
2,3, 1, 3, 0, 6, 0.00,60.00,Saturday
4973,-1.0434553831489857
4826,2237018.5707394399
4827,4.829416866414249e-8
2,3, 1, 3, 0, 7, 0.00,60.00,Saturday
4973,-1.0399505039296667
4826,2190291.5727565295
4827,2.864908310584724e-8
2,3, 1, 3, 0, 8, 0.00,60.00,Saturday
4973,-1.0344799204782196
4826,2138878.890651453
4827,5.0524704420240599e-8
2,3, 1, 3, 0, 9, 0.00,60.00,Saturday
4973,-1.0297828746687033
4826,2139790.5856067358
4827,8.66634763951879e-8
2,3, 1, 3, 0,10, 0.00,60.00,Saturday
4973,-1.0249160939088918
4826,2087159.921244197
4827,5.0238213589182126e-8
2,3, 1, 3, 0,11, 0.00,60.00,Saturday
4973,-1.0208674039953354
4826,2094759.1693089505
4827,4.829416866414249e-8
2,3, 1, 3, 0,12, 0.00,60.00,Saturday
4973,-1.017530116661552
4826,2049535.98824245
4827,5.412630343926139e-8
2,3, 1, 3, 0,13, 0.00,60.00,Saturday
4973,-1.0136799685916096
4826,2009113.6829067153
4827,1.1101519703515805e-7
2,3, 1, 3, 0,14, 0.00,60.00,Saturday
4973,-1.009654569688792
4826,1972454.0332985738
4827,3.3867308957269418e-8
2,3, 1, 3, 0,15, 0.00,60.00,Saturday
4973,-1.004769615275003
4826,1903410.8915810057
4827,5.044284989708103e-8
2,3, 1, 3, 0,16, 0.00,60.00,Saturday
4973,-0.99844920423584
4826,1885495.1668671529
4827,2.8751401259796695e-8
2,3, 1, 3, 0,17, 0.00,60.00,Saturday
4973,-0.9935726308080628
4826,1914904.414467504
4827,8.543565854779445e-8
2,3, 1, 3, 0,18, 0.00,60.00,Saturday
4973,-0.989144274488361
4826,1896970.1720672376
4827,2.4658675101818518e-8
2,3, 1, 3, 0,19, 0.00,60.00,Saturday
4973,-0.9827172990429729
4826,1863885.417386561
4827,1.892885848064907e-8
2,3, 1, 3, 0,20, 0.00,60.00,Saturday
4973,-0.9755728019396196
4826,1722718.6327603535
4827,2.5937652026186698e-8
2,3, 1, 3, 0,21, 0.00,60.00,Saturday
4973,-0.9677652329303148
4826,1652725.9759995705
4827,3.5146285881637598e-8
2,3, 1, 3, 0,22, 0.00,60.00,Saturday
4973,-0.9598253782690855
4826,1626394.6464861993
4827,4.8549964049016128e-8
2,3, 1, 3, 0,23, 0.00,60.00,Saturday
4973,-0.9535253467521195
4826,1614203.1379910219
4827,1.688249540165998e-8
2,3, 1, 3, 0,24, 0.00,60.00,Saturday
4973,-0.9474893246758873
4826,1548039.0991225197
4827,7.842686500225682e-8
2,4, 1, 4, 0, 1, 0.00,60.00,Sunday
4973,-0.9439395483250173
4826,1684607.4421864295
4827,5.769681532089521
2,4, 1, 4, 0, 2, 0.00,60.00,Sunday
4973,-0.9396714470877087
4826,1684978.8592148075
4827,2.644924279593397e-8
2,4, 1, 4, 0, 3, 0.00,60.00,Sunday