Program Version,EnergyPlus, Version 8.7.0-78a111df4a, YMD=2019.06.21 03:05
1,5,Environment Title[],Latitude[deg],Longitude[deg],Time Zone[],Elevation[m]
2,6,Day of Simulation[],Month[],Day of Month[],DST Indicator[1=yes 0=no],Hour[],StartMinute[],EndMinute[],DayType
3,3,Cumulative Day of Simulation[],Month[],Day of Month[],DST Indicator[1=yes 0=no],DayType  ! When Daily Report Variables Requested
4,2,Cumulative Days of Simulation[],Month[]  ! When Monthly Report Variables Requested
5,1,Cumulative Days of Simulation[] ! When Run Period Report Variables Requested
1929,1,THERMAL ZONE: SPACE 201,Zone Air Temperature [C] !Hourly
2695,1,THERMAL ZONE: SPACE 201 PEOPLE,Zone Thermal Comfort Fanger Model PMV [] !Hourly
3063,1,THERMAL ZONE: SPACE 305 PTHP,Zone Packaged Terminal Heat Pump Total Heating Energy [J] !Hourly
3064,1,THERMAL ZONE: SPACE 305 PTHP,Zone Packaged Terminal Heat Pump Total Cooling Energy [J] !Hourly
End of Data Dictionary
1,ANN HTG 99.6% CONDNS DB,  29.58, 106.47,   8.00, 259.10
2,1, 1,21, 0, 1, 0.00,60.00,WinterDesignDay
2695,-6.494100014960597
1929,18.000065947837166
3063,4652458.377150469
3064,0.0
2,1, 1,21, 0, 2, 0.00,60.00,WinterDesignDay
2695,-6.498014393176657
1929,18.00004985249881
3063,4671526.108398696
3064,0.0
2,1, 1,21, 0, 3, 0.00,60.00,WinterDesignDay
2695,-6.501280400443634
1929,18.00003580590362
3063,4691337.863755509
3064,0.0
2,1, 1,21, 0, 4, 0.00,60.00,WinterDesignDay
2695,-6.5041455905772909
1929,18.00003035743485
3063,4709105.097840807
3064,0.0
2,1, 1,21, 0, 5, 0.00,60.00,WinterDesignDay
2695,-6.5068688653747019
1929,18.00002393542565
3063,4729335.087522275
3064,0.0
2,1, 1,21, 0, 6, 0.00,60.00,WinterDesignDay
2695,-6.509128220051452
1929,17.999995922275514
3063,4759702.0977944959
3064,0.0
2,1, 1,21, 0, 7, 0.00,60.00,WinterDesignDay
2695,-5.677711833085792
1929,17.999927458057127
3063,4798823.009490188
3064,0.0
2,1, 1,21, 0, 8, 0.00,60.00,WinterDesignDay
2695,-5.674824874443471
1929,17.999833332679743
3063,5185312.304713335
3064,0.0
2,1, 1,21, 0, 9, 0.00,60.00,WinterDesignDay
2695,-5.319621366891603
1929,18.000099123696633
3063,6310378.611026444
3064,0.0
2,1, 1,21, 0,10, 0.00,60.00,WinterDesignDay
2695,-5.300807038969209
1929,18.000706523770494
3063,7304556.897275791
3064,0.0
2,1, 1,21, 0,11, 0.00,60.00,WinterDesignDay
2695,-5.2889237210669759
1929,18.0009007065603
3063,7021262.928484542
3064,0.0
2,1, 1,21, 0,12, 0.00,60.00,WinterDesignDay
2695,-5.281176978697743
1929,18.000927817552335
3063,6834820.322794164
3064,0.0
2,1, 1,21, 0,13, 0.00,60.00,WinterDesignDay
2695,-5.276946799211397
1929,18.000841902569076
3063,6365992.959322804
3064,0.0
2,1, 1,21, 0,14, 0.00,60.00,WinterDesignDay
2695,-5.273332819794876
1929,18.000818036301877
3063,6292799.911732189
3064,0.0
2,1, 1,21, 0,15, 0.00,60.00,WinterDesignDay
2695,-5.2686916803894479
1929,18.000963482635986
3063,6555749.911670476
3064,0.0
2,1, 1,21, 0,16, 0.00,60.00,WinterDesignDay
2695,-5.266854227751487
1929,18.00109077320361
3063,6543103.6399040869
3064,0.0
2,1, 1,21, 0,17, 0.00,60.00,WinterDesignDay
2695,-5.268121558696637
1929,18.001149245565015
3063,6600349.935058448
3064,0.0
2,1, 1,21, 0,18, 0.00,60.00,WinterDesignDay
2695,-5.270475435419261
1929,18.001195758679026
3063,6687286.079759323
3064,0.0
2,1, 1,21, 0,19, 0.00,60.00,WinterDesignDay
2695,-5.615722043346584
1929,18.000683830201436
3063,5222321.934347935
3064,0.0
2,1, 1,21, 0,20, 0.00,60.00,WinterDesignDay
2695,-5.631283677915309
1929,18.000359634713655
3063,5398744.20728551
3064,0.0
2,1, 1,21, 0,21, 0.00,60.00,WinterDesignDay
2695,-5.641590324052387
1929,18.000189133223203
3063,4569422.167900639
3064,0.0
2,1, 1,21, 0,22, 0.00,60.00,WinterDesignDay
2695,-5.64960089426047
1929,18.000115412140706
3063,4613233.2919375379
3064,0.0
2,1, 1,21, 0,23, 0.00,60.00,WinterDesignDay
2695,-5.655244596462008
1929,18.000087776792915
3063,4633960.828848795
3064,0.0
2,1, 1,21, 0,24, 0.00,60.00,WinterDesignDay
2695,-5.659832533172808
1929,18.000075340184418
3063,4647584.958339078
3064,0.0
1,ANN CLG 4% CONDNS DB =>MWB,  29.58, 106.47,   8.00, 259.10
2,1, 7,21, 0, 1, 0.00,60.00,SummerDesignDay
2695,-3.153319625214643
1929,25.999759309494438
3063,0.0
3064,880760.8775760646
2,1, 7,21, 0, 2, 0.00,60.00,SummerDesignDay
2695,-3.16358252482401
1929,25.999830706415467
3063,0.0
3064,848310.6516879058
2,1, 7,21, 0, 3, 0.00,60.00,SummerDesignDay
2695,-3.1715365595285358
1929,25.999879701624236
3063,0.0
3064,821178.6120644963
2,1, 7,21, 0, 4, 0.00,60.00,SummerDesignDay
2695,-3.178011869544905
1929,25.9999103831113
3063,0.0
3064,797806.0808592264
2,1, 7,21, 0, 5, 0.00,60.00,SummerDesignDay
2695,-3.183606927859786
1929,25.999931951232289
3063,0.0
3064,775595.2078946177
2,1, 7,21, 0, 6, 0.00,60.00,SummerDesignDay
2695,-3.188463740441218
1929,25.9999610822899
3063,0.0
3064,750247.1506905856
2,1, 7,21, 0, 7, 0.00,60.00,SummerDesignDay
2695,-3.891845723777777
1929,25.999996553374005
3063,0.0
3064,720143.7802522986
2,1, 7,21, 0, 8, 0.00,60.00,SummerDesignDay
2695,-3.868891804442599
1929,25.99968215109898
3063,0.0
3064,1125085.6901048788
2,1, 7,21, 0, 9, 0.00,60.00,SummerDesignDay
2695,-3.810651142090547
1929,25.99690931168512
3063,0.0
3064,3787199.173758184
2,1, 7,21, 0,10, 0.00,60.00,SummerDesignDay
2695,-3.660124749373235
1929,26.58173294055749
3063,0.0
3064,6870184.877072763
2,1, 7,21, 0,11, 0.00,60.00,SummerDesignDay
2695,-3.5470155224912296
1929,26.985685633355066
3063,0.0
3064,6973276.398202043
2,1, 7,21, 0,12, 0.00,60.00,SummerDesignDay
2695,-3.4771610492643725
1929,27.287244986298434
3063,0.0
3064,6913879.823968309
2,1, 7,21, 0,13, 0.00,60.00,SummerDesignDay
2695,-3.5138187437024128
1929,26.964700715792359
3063,0.0
3064,6569048.145045352
2,1, 7,21, 0,14, 0.00,60.00,SummerDesignDay
2695,-3.5203599791324526
1929,27.020323393087975
3063,0.0
3064,6329961.036811211
2,1, 7,21, 0,15, 0.00,60.00,SummerDesignDay
2695,-3.4102950564607807
1929,27.629700643739544
3063,0.0
3064,6660658.140253203
2,1, 7,21, 0,16, 0.00,60.00,SummerDesignDay
2695,-3.364803195864559
1929,27.67615031983969
3063,0.0
3064,6920660.780429719
2,1, 7,21, 0,17, 0.00,60.00,SummerDesignDay
2695,-3.380411768936306
1929,27.553309865054137
3063,0.0
3064,7013862.946298358
2,1, 7,21, 0,18, 0.00,60.00,SummerDesignDay
2695,-3.407348226343031
1929,27.378908961525345
3063,0.0
3064,7108918.248130342
2,1, 7,21, 0,19, 0.00,60.00,SummerDesignDay
2695,-3.5814858814602155
1929,26.047583284423934
3063,0.0
3064,4159812.476655327
2,1, 7,21, 0,20, 0.00,60.00,SummerDesignDay
2695,-3.691715016065934
1929,25.99702264675366
3063,0.0
3064,3390451.4957551618
2,1, 7,21, 0,21, 0.00,60.00,SummerDesignDay
2695,-3.7257617783802638
1929,25.99858763531338
3063,0.0
3064,1361030.7856557714
2,1, 7,21, 0,22, 0.00,60.00,SummerDesignDay
2695,-3.777783723134864
1929,25.99917367394283
3063,0.0
3064,1133531.3019047389
2,1, 7,21, 0,23, 0.00,60.00,SummerDesignDay
2695,-3.8091187405066955
1929,25.99947577833814
3063,0.0
3064,1018942.5256534442
2,1, 7,21, 0,24, 0.00,60.00,SummerDesignDay
2695,-3.8296786505318844
1929,25.999659722713039
3063,0.0
3064,948931.9572934271
1,RUN PERIOD 1,  29.58, 106.47,   8.00, 259.10
2,1, 1, 1, 0, 1, 0.00,60.00,Holiday
2695,-6.117024198671609
1929,18.000204262890845
3063,1690431.065173467
3064,0.0
2,1, 1, 1, 0, 2, 0.00,60.00,Holiday
2695,-6.120201624771519
1929,18.000079868485554
3063,1718062.4399141554
3064,0.0
2,1, 1, 1, 0, 3, 0.00,60.00,Holiday
2695,-6.121799898474844
1929,18.000055913153135
3063,1722732.569772353
3064,0.0
2,1, 1, 1, 0, 4, 0.00,60.00,Holiday
2695,-6.123602769976697
1929,18.000074513558599
3063,1722196.4868329848
3064,0.0
2,1, 1, 1, 0, 5, 0.00,60.00,Holiday
2695,-6.126771198541511
1929,18.000128129610144
3063,1717444.6963902899
3064,0.0
2,1, 1, 1, 0, 6, 0.00,60.00,Holiday
2695,-6.1336202055661819
1929,18.00016443460313
3063,1657924.8481296157
3064,0.0
2,1, 1, 1, 0, 7, 0.00,60.00,Holiday
2695,-6.539954896492524
1929,18.000123916172766
3063,1704687.8410110973
3064,0.0
2,1, 1, 1, 0, 8, 0.00,60.00,Holiday
2695,-6.549112108922011
1929,18.00007987657248
3063,1765635.1759760802
3064,0.0
2,1, 1, 1, 0, 9, 0.00,60.00,Holiday
2695,-6.055159613440252
1929,18.00004023023082
3063,1825445.1144731148
3064,0.0
2,1, 1, 1, 0,10, 0.00,60.00,Holiday
2695,-6.057970848441703
1929,18.000008987166276
3063,1889498.8417193406
3064,0.0
2,1, 1, 1, 0,11, 0.00,60.00,Holiday
2695,-6.058883119020073
1929,18.00000558942845
3063,1932522.029054467
3064,0.0
2,1, 1, 1, 0,12, 0.00,60.00,Holiday
2695,-6.059534904358813
1929,18.00000228051904
3063,1954453.6597066904
3064,0.0
2,1, 1, 1, 0,13, 0.00,60.00,Holiday
2695,-6.06029719966342
1929,18.000000669026254
3063,1996983.9206462294
3064,0.0
2,1, 1, 1, 0,14, 0.00,60.00,Holiday
2695,-6.059076630100719
1929,18.000000554593016
3063,2036985.30128802
3064,0.0
2,1, 1, 1, 0,15, 0.00,60.00,Holiday
2695,-6.05554026977083
1929,18.000000447152855
3063,2061476.3490919849
3064,0.0
2,1, 1, 1, 0,16, 0.00,60.00,Holiday
2695,-6.049543285889261
1929,18.00000034865486
3063,2072864.8885748978
3064,0.0
2,1, 1, 1, 0,17, 0.00,60.00,Holiday
2695,-6.040999803006304
1929,18.000000272559189
3063,2068630.962594998
3064,0.0
2,1, 1, 1, 0,18, 0.00,60.00,Holiday
2695,-6.030308954257182
1929,18.000000225204518
3063,2042780.6638074152
3064,0.0
2,1, 1, 1, 0,19, 0.00,60.00,Holiday
2695,-6.512306773086666
1929,18.000000199869097
3063,1992911.2667732198
3064,0.0
2,1, 1, 1, 0,20, 0.00,60.00,Holiday
2695,-6.499706038667984
1929,18.00000020359505
3063,1902781.391882942
3064,0.0
2,1, 1, 1, 0,21, 0.00,60.00,Holiday
2695,-6.492524881305635
1929,18.000051912386593
3063,1789221.0585581198
3064,0.0
2,1, 1, 1, 0,22, 0.00,60.00,Holiday
2695,-6.492630622847892
1929,18.00028238718276
3063,1703392.3075524946
3064,0.0
2,1, 1, 1, 0,23, 0.00,60.00,Holiday
2695,-6.49790778764173
1929,18.000376502204707
3063,1664352.173011319
3064,0.0
2,1, 1, 1, 0,24, 0.00,60.00,Holiday
2695,-6.505243094123041
1929,18.000369326570167
3063,1654491.15269979
3064,0.0
2,2, 1, 2, 0, 1, 0.00,60.00,Holiday
2695,-6.5121854484492129
1929,18.00033730797416
3063,1654461.4770600505
3064,0.0
2,2, 1, 2, 0, 2, 0.00,60.00,Holiday
2695,-6.519208104294304
1929,18.000276555042963
3063,1668273.5134710838
3064,0.0
2,2, 1, 2, 0, 3, 0.00,60.00,Holiday
2695,-6.525624292823541
1929,18.000200993095075
3063,1691267.6484088237
3064,0.0
2,2, 1, 2, 0, 4, 0.00,60.00,Holiday
2695,-6.530656599579138
1929,18.00014218991015
3063,1713889.2055798516
3064,0.0
2,2, 1, 2, 0, 5, 0.00,60.00,Holiday
2695,-6.534755730741779
1929,18.00010281735057
3063,1736440.6501145922
3064,0.0
2,2, 1, 2, 0, 6, 0.00,60.00,Holiday
2695,-6.538328662202489
1929,18.00007660952279
3063,1760820.8386798334
3064,0.0
2,2, 1, 2, 0, 7, 0.00,60.00,Holiday
2695,-6.642024178806504
1929,18.000065838025589
3063,1785057.2860389297
3064,0.0
2,2, 1, 2, 0, 8, 0.00,60.00,Holiday
2695,-6.645350581136474
1929,18.00005082949849
3063,1814693.052295582
3064,0.0
2,2, 1, 2, 0, 9, 0.00,60.00,Holiday
2695,-6.131036267750449
1929,18.00000483580578
3063,1864963.2089283956
3064,0.0
2,2, 1, 2, 0,10, 0.00,60.00,Holiday
2695,-6.131231414396169
1929,18.000000529998464
3063,1919444.1128070073
3064,0.0
2,2, 1, 2, 0,11, 0.00,60.00,Holiday
2695,-6.129853095523656
1929,18.00000047199623
3063,1944021.143225795
3064,0.0
2,2, 1, 2, 0,12, 0.00,60.00,Holiday
2695,-6.128855678878953
1929,18.000000430279255
3063,1963366.8237521677
3064,0.0
2,2, 1, 2, 0,13, 0.00,60.00,Holiday
2695,-6.127953803594832
1929,18.000000397261045
3063,1980832.329431815
3064,0.0
2,2, 1, 2, 0,14, 0.00,60.00,Holiday
2695,-6.126855480640099
1929,18.000000360542264
3063,1994330.7728878596
3064,0.0
2,2, 1, 2, 0,15, 0.00,60.00,Holiday
2695,-6.124622274205571
1929,18.00000031335322
3063,2009679.8112964226
3064,0.0
2,2, 1, 2, 0,16, 0.00,60.00,Holiday
2695,-6.120078325421713
1929,18.000000269943749
3063,2012517.4958451184
3064,0.0
2,2, 1, 2, 0,17, 0.00,60.00,Holiday
2695,-6.1137194136322619
1929,18.000000256820777
3063,1965419.489819033
3064,0.0
2,2, 1, 2, 0,18, 0.00,60.00,Holiday
2695,-6.108479958710318
1929,18.00000027257117
3063,1889335.2720585215
3064,0.0
2,2, 1, 2, 0,19, 0.00,60.00,Holiday
2695,-6.617588530067764
1929,18.000022441512667
3063,1820764.7744899046
3064,0.0
2,2, 1, 2, 0,20, 0.00,60.00,Holiday
2695,-6.61576958228632
1929,18.000091907522714
3063,1764009.032059419
3064,0.0
2,2, 1, 2, 0,21, 0.00,60.00,Holiday
2695,-6.615414790422726
1929,18.000089723578517
3063,1733380.142448795
3064,0.0
2,2, 1, 2, 0,22, 0.00,60.00,Holiday
2695,-6.614889739045839
1929,18.000020500418139
3063,1729749.8344265756
3064,0.0
2,2, 1, 2, 0,23, 0.00,60.00,Holiday
2695,-6.613297834803968
1929,18.000000374819594
3063,1723220.6782796425
3064,0.0
2,2, 1, 2, 0,24, 0.00,60.00,Holiday
2695,-6.612299400182966
1929,18.00004198000104
3063,1699051.8793790776
3064,0.0
2,3, 1, 3, 0, 1, 0.00,60.00,Holiday
2695,-6.614084664346604
1929,18.000112317338869
3063,1681874.6681120075
3064,0.0
2,3, 1, 3, 0, 2, 0.00,60.00,Holiday
2695,-6.618252760763629
1929,18.000203719794926
3063,1662250.9854463093
3064,0.0
2,3, 1, 3, 0, 3, 0.00,60.00,Holiday
2695,-6.625904107766651
1929,18.00024436683351
3063,1616053.9889560636
3064,0.0
2,3, 1, 3, 0, 4, 0.00,60.00,Holiday
2695,-6.639128387313215
1929,18.00015890461286
3063,1655647.134147393
3064,0.0
2,3, 1, 3, 0, 5, 0.00,60.00,Holiday
2695,-6.648752353147217
1929,18.000082614455907
3063,1731701.807462307
3064,0.0
2,3, 1, 3, 0, 6, 0.00,60.00,Holiday
2695,-6.654385876356845
1929,18.000040742584166
3063,1783569.435684465
3064,0.0
2,3, 1, 3, 0, 7, 0.00,60.00,Holiday
2695,-6.559805582450189
1929,18.00000755751461
3063,1852690.061324139
3064,0.0
2,3, 1, 3, 0, 8, 0.00,60.00,Holiday
2695,-6.56028231569102
1929,18.00000360414456
3063,1877846.5806084674
3064,0.0
2,3, 1, 3, 0, 9, 0.00,60.00,Holiday
2695,-6.060299162682928
1929,18.000000704273917
3063,1909894.9725629856
3064,0.0
2,3, 1, 3, 0,10, 0.00,60.00,Holiday
2695,-6.061067279036387
1929,18.00000066015282
3063,1944303.7086428246
3064,0.0
2,3, 1, 3, 0,11, 0.00,60.00,Holiday
2695,-6.062033440702231
1929,18.000000626855777
3063,1979850.753515257
3064,0.0
2,3, 1, 3, 0,12, 0.00,60.00,Holiday
2695,-6.062952194818474
1929,18.000000596103097
3063,2012388.199154205
3064,0.0
2,3, 1, 3, 0,13, 0.00,60.00,Holiday
2695,-6.064128573003505
1929,18.00000057469749
3063,2043322.3031691448
3064,0.0
2,3, 1, 3, 0,14, 0.00,60.00,Holiday
2695,-6.0653324970440869
1929,18.00000055912521
3063,2074266.7832754979
3064,0.0
2,3, 1, 3, 0,15, 0.00,60.00,Holiday
2695,-6.066380688326622
1929,18.000000550312025
3063,2104677.5134421319
3064,0.0
2,3, 1, 3, 0,16, 0.00,60.00,Holiday
2695,-6.0670361720412659
1929,18.000000545882025
3063,2131711.1060784279
3064,0.0
2,3, 1, 3, 0,17, 0.00,60.00,Holiday
2695,-6.0671886899667799
1929,18.000000540541064
3063,2160528.701663987
3064,0.0
2,3, 1, 3, 0,18, 0.00,60.00,Holiday
2695,-6.066488364526285
1929,18.00000054119788
3063,2181739.259576154
3064,0.0
2,3, 1, 3, 0,19, 0.00,60.00,Holiday
2695,-6.568386896884843
1929,18.000000539292569
3063,2199032.8852470798
3064,0.0
2,3, 1, 3, 0,20, 0.00,60.00,Holiday
2695,-6.566296112035748
1929,18.000000545203308
3063,2212363.2439133978
3064,0.0
2,3, 1, 3, 0,21, 0.00,60.00,Holiday
2695,-6.5638455403102748
1929,18.000000554039315
3063,2218999.2463606128
3064,0.0
2,3, 1, 3, 0,22, 0.00,60.00,Holiday
2695,-6.561582399366222
1929,18.000000564758328
3063,2220278.7760239925
3064,0.0
2,3, 1, 3, 0,23, 0.00,60.00,Holiday
2695,-6.559949572583785
1929,18.00000058106858
3063,2222659.9968965707
3064,0.0
2,3, 1, 3, 0,24, 0.00,60.00,Holiday
2695,-6.558996094576898
1929,18.000000597857299
3063,2220842.0635523379
3064,0.0
2,4, 1, 4, 0, 1, 0.00,60.00,Wednesday
2695,-6.559042309722038
1929,18.00000061522718
3063,2227514.307385348
3064,0.0
2,4, 1, 4, 0, 2, 0.00,60.00,Wednesday
2695,-6.559360629101994
1929,18.000001924987843
3063,2232179.8151189258
3064,0.0
2,4, 1, 4, 0, 3, 0.00,60.00,Wednesday
2695,-6.56020124147924
1929,18.000001386031689
3063,2242162.5390088518
3064,0.0
2,4, 1, 4, 0, 4, 0.00,60.00,Wednesday
2695,-6.5608972130753069
1929,18.000000670777746
3063,2255810.702809535
3064,0.0
2,4, 1, 4, 0, 5, 0.00,60.00,Wednesday
2695,-6.561221831922918
1929,18.000000681606737
3063,2272049.482468682
3064,0.0
2,4, 1, 4, 0, 6, 0.00,60.00,Wednesday
2695,-6.560987533968994
1929,18.000000695085985
3063,2282974.01168691
3064,0.0
2,4, 1, 4, 0, 7, 0.00,60.00,Wednesday
2695,-6.690360947604515
1929,18.000000706498864
3063,2288637.8074049476
3064,0.0
2,4, 1, 4, 0, 8, 0.00,60.00,Wednesday
2695,-6.688806053486169
1929,18.00002533003306
3063,2285208.6961105398
3064,0.0
2,4, 1, 4, 0, 9, 0.00,60.00,Wednesday
2695,-6.152233063678263
1929,18.000205585521333
3063,2194665.010962352
3064,0.0
2,4, 1, 4, 0,10, 0.00,60.00,Wednesday
2695,-6.13473585847619
1929,18.00042015375219
3063,2040395.2859688809
3064,0.0
2,4, 1, 4, 0,11, 0.00,60.00,Wednesday
2695,-6.1287343992574139
1929,18.00051029698818
3063,1953185.7385990858
3064,0.0
2,4, 1, 4, 0,12, 0.00,60.00,Wednesday
2695,-6.129676609127771
1929,18.00048955036704
3063,1893512.5101721655
3064,0.0
2,4, 1, 4, 0,13, 0.00,60.00,Wednesday
2695,-6.1314891237410908
1929,18.00047546261999
3063,1858628.5425441524
3064,0.0
2,4, 1, 4, 0,14, 0.00,60.00,Wednesday
2695,-6.132091770425837
1929,18.00041136010982
3063,1773657.533604524
3064,0.0
2,4, 1, 4, 0,15, 0.00,60.00,Wednesday
2695,-6.1266471990306539
1929,18.000292748368826
3063,1568524.0597392626
3064,0.0
2,4, 1, 4, 0,16, 0.00,60.00,Wednesday
2695,-6.1161352510305388
1929,18.000224663002937
3063,1401166.2220591368
3064,0.0
2,4, 1, 4, 0,17, 0.00,60.00,Wednesday
2695,-6.105432289706916
1929,18.000223281380817
3063,1314397.5794949416
3064,0.0
2,4, 1, 4, 0,18, 0.00,60.00,Wednesday
2695,-6.099513422452887
1929,18.000247460152968
3063,1317531.0411596243
3064,0.0
2,4, 1, 4, 0,19, 0.00,60.00,Wednesday
2695,-6.61916170770017
1929,18.000403214555658
3063,1789274.0346993278
3064,0.0
2,4, 1, 4, 0,20, 0.00,60.00,Wednesday
2695,-6.631304228918931
1929,18.00027514714098
3063,1850452.5347030329
3064,0.0
2,4, 1, 4, 0,21, 0.00,60.00,Wednesday
2695,-6.640023012025974
1929,18.000255340180343
3063,1972298.7491904968
3064,0.0
2,4, 1, 4, 0,22, 0.00,60.00,Wednesday
2695,-6.646781527481313
1929,18.000192469293677
3063,1988327.4994293745
3064,0.0
2,4, 1, 4, 0,23, 0.00,60.00,Wednesday
2695,-6.651860130155068
1929,18.00014773911496
3063,1996291.5123103164
3064,0.0
2,4, 1, 4, 0,24, 0.00,60.00,Wednesday
2695,-6.656182239367522
1929,18.000131247467004
3063,1999191.6352042189
3064,0.0
2,5, 1, 5, 0, 1, 0.00,60.00,Thursday
2695,-6.6608667230349
1929,18.00011855376241
3063,2005758.7752492568
3064,0.0
2,5, 1, 5, 0, 2, 0.00,60.00,Thursday
2695,-6.665192654259123
1929,18.000112631543517
3063,2013421.4922731093
3064,0.0
2,5, 1, 5, 0, 3, 0.00,60.00,Thursday
2695,-6.669219746265469
1929,18.0001271024453
3063,2017717.6855888772
3064,0.0
2,5, 1, 5, 0, 4, 0.00,60.00,Thursday
2695,-6.673841803934124
1929,18.000158471652925
3063,2019470.658467297
3064,0.0
2,5, 1, 5, 0, 5, 0.00,60.00,Thursday
2695,-6.679209606802776
1929,18.000163718614698
3063,2030748.8916157687
3064,0.0
2,5, 1, 5, 0, 6, 0.00,60.00,Thursday
2695,-6.684508383048222
1929,18.00015088399793
3063,2046318.423008081
3064,0.0
2,5, 1, 5, 0, 7, 0.00,60.00,Thursday
2695,-6.701291171928549
1929,18.000163093643207
3063,2052752.7421922372
3064,0.0
2,5, 1, 5, 0, 8, 0.00,60.00,Thursday
2695,-6.705389786286877
1929,18.000155596966587
3063,2065299.4324217439
3064,0.0
2,5, 1, 5, 0, 9, 0.00,60.00,Thursday
2695,-6.170406189224473
1929,18.000226001890586
3063,1998749.4563556386
3064,0.0
2,5, 1, 5, 0,10, 0.00,60.00,Thursday
2695,-6.153003834249602
1929,18.00036563847811
3063,1857389.8717751678
3064,0.0
2,5, 1, 5, 0,11, 0.00,60.00,Thursday
2695,-6.143329930266468
1929,18.000422563510634
3063,1765177.8121037719
3064,0.0
2,5, 1, 5, 0,12, 0.00,60.00,Thursday
2695,-6.139481194040511
1929,18.000415778575009
3063,1702998.6292311482
3064,0.0
2,5, 1, 5, 0,13, 0.00,60.00,Thursday
2695,-6.137536452760382
1929,18.000390085642154
3063,1683257.4407986529
3064,0.0
2,5, 1, 5, 0,14, 0.00,60.00,Thursday
2695,-6.133552834046981
1929,18.00036410331685
3063,1620292.5743486554
3064,0.0
2,5, 1, 5, 0,15, 0.00,60.00,Thursday
2695,-6.127950162774467
1929,18.00032021000098
3063,1484421.2043218029
3064,0.0
2,5, 1, 5, 0,16, 0.00,60.00,Thursday
2695,-6.122737515167171
1929,18.00029503115518
3063,1390926.318919147
3064,0.0
2,5, 1, 5, 0,17, 0.00,60.00,Thursday
2695,-6.1180919771936719
1929,18.00026245677439
3063,1297838.9849975589
3064,0.0
2,5, 1, 5, 0,18, 0.00,60.00,Thursday
2695,-6.1136487885839438
1929,18.000237112948385
3063,1212950.4804738658
3064,0.0
2,5, 1, 5, 0,19, 0.00,60.00,Thursday
2695,-6.6360548386229569
1929,18.000375956544106
3063,1613226.1094750148
3064,0.0
2,5, 1, 5, 0,20, 0.00,60.00,Thursday
2695,-6.648710212914847
1929,18.000259048360989
3063,1650992.4397313479
3064,0.0
2,5, 1, 5, 0,21, 0.00,60.00,Thursday
2695,-6.658055299385673
1929,18.00026801351663
3063,1820908.3919484565
3064,0.0
2,5, 1, 5, 0,22, 0.00,60.00,Thursday
2695,-6.6656562886358439
1929,18.000234741944067
3063,1836370.6674992084
3064,0.0
2,5, 1, 5, 0,23, 0.00,60.00,Thursday
2695,-6.672183062449849
1929,18.000186628872794
3063,1853166.7187806126
3064,0.0
2,5, 1, 5, 0,24, 0.00,60.00,Thursday
2695,-6.677251578171934
1929,18.000092480072714
3063,1882967.5178440333
3064,0.0
2,6, 1, 6, 0, 1, 0.00,60.00,Friday
2695,-6.679662234709941
1929,18.000037904449454
3063,1899566.9083633228
3064,0.0
2,6, 1, 6, 0, 2, 0.00,60.00,Friday
2695,-6.681198607463414
1929,18.00000467383795
3063,1917912.8089751085
3064,0.0
2,6, 1, 6, 0, 3, 0.00,60.00,Friday
2695,-6.681680726604764
1929,18.00000050402917
3063,1938181.276957869
3064,0.0
2,6, 1, 6, 0, 4, 0.00,60.00,Friday
2695,-6.68120900089811
1929,18.00000052171937
3063,1954247.8951389038
3064,0.0
2,6, 1, 6, 0, 5, 0.00,60.00,Friday
2695,-6.680225994888615
1929,18.000000533195029
3063,1967293.5850511776
3064,0.0
2,6, 1, 6, 0, 6, 0.00,60.00,Friday
2695,-6.679121517915225
1929,18.000000539749914
3063,1980035.3906673468
3064,0.0
2,6, 1, 6, 0, 7, 0.00,60.00,Friday
2695,-6.6753760055856
1929,18.0000005464058
3063,1981602.6385812155
3064,0.0
2,6, 1, 6, 0, 8, 0.00,60.00,Friday
2695,-6.6739889065150399
1929,18.000019288283089
3063,1976361.0638306537
3064,0.0
2,6, 1, 6, 0, 9, 0.00,60.00,Friday
2695,-6.140489732691066
1929,18.000166901136
3063,1856418.0332403146
3064,0.0
2,6, 1, 6, 0,10, 0.00,60.00,Friday
2695,-6.121236245092956
1929,18.000296953709733
3063,1577767.7176763209
3064,0.0
2,6, 1, 6, 0,11, 0.00,60.00,Friday
2695,-6.1123468019427629
1929,18.000306287560695
3063,1386982.2838727297
3064,0.0
2,6, 1, 6, 0,12, 0.00,60.00,Friday
2695,-6.109952170919329
1929,18.000239907551117
3063,1220084.0654159897
3064,0.0
2,6, 1, 6, 0,13, 0.00,60.00,Friday
2695,-6.108627114604136
1929,18.000212356554355
3063,1142660.4870903369
3064,0.0
2,6, 1, 6, 0,14, 0.00,60.00,Friday
2695,-6.105782247915482
1929,18.000162197345419
3063,950645.491386205
3064,0.0
2,6, 1, 6, 0,15, 0.00,60.00,Friday
2695,-6.07854452681217
1929,18.146357911366768
3063,514905.3835648172
3064,0.0
2,6, 1, 6, 0,16, 0.00,60.00,Friday
2695,-6.015620053993218
1929,18.404368153000644
3063,212930.74350133833
3064,0.0
2,6, 1, 6, 0,17, 0.00,60.00,Friday
2695,-5.965553620585092
1929,18.53803900317329
3063,54422.99703867309
3064,0.0
2,6, 1, 6, 0,18, 0.00,60.00,Friday
2695,-5.947230349284518
1929,18.53442446057787
3063,38118.105716542435
3064,0.0
2,6, 1, 6, 0,19, 0.00,60.00,Friday
2695,-6.513441530923358
1929,18.021053113104839
3063,968669.4565204749
3064,0.0
2,6, 1, 6, 0,20, 0.00,60.00,Friday
2695,-6.544361604184093
1929,18.00016655880684
3063,969404.8127267769
3064,0.0
2,6, 1, 6, 0,21, 0.00,60.00,Friday
2695,-6.549282548836325
1929,18.00024377951451
3063,1245694.4031543078
3064,0.0
2,6, 1, 6, 0,22, 0.00,60.00,Friday
2695,-6.551258093634002
1929,18.000206071923317
3063,1215657.3468778218
3064,0.0
2,6, 1, 6, 0,23, 0.00,60.00,Friday
2695,-6.553156286013212
1929,18.00019436655531
3063,1189450.284799636
3064,0.0
2,6, 1, 6, 0,24, 0.00,60.00,Friday
2695,-6.555974283253792
1929,18.000194182949377
3063,1172637.8181332865
3064,0.0
2,7, 1, 7, 0, 1, 0.00,60.00,Saturday
2695,-6.559918164790669
1929,18.00018463128248
3063,1169177.2009337659
3064,0.0
2,7, 1, 7, 0, 2, 0.00,60.00,Saturday
2695,-6.564556471751221
1929,18.0001887570594
3063,1170754.3020354463
3064,0.0
2,7, 1, 7, 0, 3, 0.00,60.00,Saturday
2695,-6.570170913019166
1929,18.000206227722165
3063,1175858.5632228975
3064,0.0
2,7, 1, 7, 0, 4, 0.00,60.00,Saturday
2695,-6.577112150606067
1929,18.0002299311445
3063,1184351.1518070887
3064,0.0
2,7, 1, 7, 0, 5, 0.00,60.00,Saturday
2695,-6.585637171853939
1929,18.000260246843717
3063,1173593.554900237
3064,0.0
2,7, 1, 7, 0, 6, 0.00,60.00,Saturday
2695,-6.601397010859922
1929,18.00023031275642
3063,1128395.7819535745
3064,0.0
2,7, 1, 7, 0, 7, 0.00,60.00,Saturday
2695,-6.413341181306591
1929,18.000156883747576
3063,1208180.0824120274
3064,0.0
2,7, 1, 7, 0, 8, 0.00,60.00,Saturday
2695,-6.427341589843081
1929,18.000095702842974
3063,1289187.5459533192
3064,0.0
2,7, 1, 7, 0, 9, 0.00,60.00,Saturday
2695,-5.9592621743742779
1929,18.000058898209216
3063,1355369.3665569525
3064,0.0
2,7, 1, 7, 0,10, 0.00,60.00,Saturday
2695,-5.965410394931623
1929,18.00004575567532
3063,1407737.639622612
3064,0.0
2,7, 1, 7, 0,11, 0.00,60.00,Saturday
2695,-5.970765122188269
1929,18.000033814651745
3063,1465518.0573168642
3064,0.0
2,7, 1, 7, 0,12, 0.00,60.00,Saturday
2695,-5.975078491106314
1929,18.000023490800648
3063,1516934.563990604
3064,0.0
2,7, 1, 7, 0,13, 0.00,60.00,Saturday
2695,-5.977916638431996
1929,18.000001762622749
3063,1559772.6832462359
3064,0.0
2,7, 1, 7, 0,14, 0.00,60.00,Saturday
2695,-5.978340228121136
1929,18.00000023585811
3063,1589734.088008332
3064,0.0
2,7, 1, 7, 0,15, 0.00,60.00,Saturday
2695,-5.975398927263495
1929,18.00000015261022
3063,1603329.6912144733
3064,0.0
2,7, 1, 7, 0,16, 0.00,60.00,Saturday
2695,-5.968166483701531
1929,18.00000010233497
3063,1580471.073179445
3064,0.0
2,7, 1, 7, 0,17, 0.00,60.00,Saturday
2695,-5.957919998544557
1929,18.000000087527608
3063,1490973.8615105404
3064,0.0
2,7, 1, 7, 0,18, 0.00,60.00,Saturday
2695,-5.947955495256866
1929,18.00000008664318
3063,1379236.9579061703
3064,0.0
2,7, 1, 7, 0,19, 0.00,60.00,Saturday
2695,-6.412454127044132
1929,18.000000087525846
3063,1275381.6740852593
3064,0.0
2,7, 1, 7, 0,20, 0.00,60.00,Saturday
2695,-6.4015430181712109
1929,18.00000008922169
3063,1185927.8479815738
3064,0.0
2,7, 1, 7, 0,21, 0.00,60.00,Saturday
2695,-6.391584016257577
1929,18.000000091987329
3063,1112287.2105789697
3064,0.0
2,7, 1, 7, 0,22, 0.00,60.00,Saturday
2695,-6.383401185536065
1929,18.00000009602957
3063,1056321.4775262904
3064,0.0
2,7, 1, 7, 0,23, 0.00,60.00,Saturday
2695,-6.377324355905188
1929,18.000000100797416
3063,1016919.1009935069
3064,0.0
2,7, 1, 7, 0,24, 0.00,60.00,Saturday
2695,-6.373492561938792
1929,18.00000916282726
3063,992185.1429133457
3064,0.0
2,8, 1, 8, 0, 1, 0.00,60.00,Sunday
2695,-6.371637606317113
1929,18.00001587249623
3063,986378.5105506496
3064,0.0
2,8, 1, 8, 0, 2, 0.00,60.00,Sunday
2695,-6.370910742909103
1929,18.000015187233865
3063,992328.0718370876
3064,0.0
2,8, 1, 8, 0, 3, 0.00,60.00,Sunday
2695,-6.371141013730056
1929,18.000020276133538
3063,1005155.51197057
3064,0.0
2,8, 1, 8, 0, 4, 0.00,60.00,Sunday
2695,-6.372284040624375
1929,18.000025636871344
3063,1025042.5266724242
3064,0.0
2,8, 1, 8, 0, 5, 0.00,60.00,Sunday
2695,-6.374173060795049
1929,18.000023245166564
3063,1052980.536605518
3064,0.0
2,8, 1, 8, 0, 6, 0.00,60.00,Sunday
2695,-6.376545632080905
1929,18.00002939901241
3063,1082448.7842925005
3064,0.0
2,8, 1, 8, 0, 7, 0.00,60.00,Sunday
2695,-6.589043353745152
1929,18.000039868695099
3063,1113925.977315868
3064,0.0
2,8, 1, 8, 0, 8, 0.00,60.00,Sunday
2695,-6.592750289884555
1929,18.000045963129407
3063,1149315.636746659
3064,0.0
2,8, 1, 8, 0, 9, 0.00,60.00,Sunday
2695,-6.090084260907724
1929,18.000043739088043
3063,1189518.735010714
3064,0.0
2,8, 1, 8, 0,10, 0.00,60.00,Sunday
2695,-6.093486278602047
1929,18.000034825350207
3063,1233034.727021314
3064,0.0
2,8, 1, 8, 0,11, 0.00,60.00,Sunday
2695,-6.096720393977019
1929,18.000010898521606
3063,1281342.7954621288
3064,0.0
2,8, 1, 8, 0,12, 0.00,60.00,Sunday
2695,-6.099448326384955
1929,18.000000171247036
3063,1324046.0800476047
3064,0.0
2,8, 1, 8, 0,13, 0.00,60.00,Sunday
2695,-6.101882644956727
1929,18.00000297369146
3063,1356165.556130875
3064,0.0
2,8, 1, 8, 0,14, 0.00,60.00,Sunday
2695,-6.103914506907615
1929,18.0000006750808
3063,1381539.2076737344
3064,0.0
2,8, 1, 8, 0,15, 0.00,60.00,Sunday
2695,-6.104978174852005
1929,18.00000012407966
3063,1395082.524865311
3064,0.0
2,8, 1, 8, 0,16, 0.00,60.00,Sunday
2695,-6.104596802562683
1929,18.000000112338517
3063,1391054.002636557
3064,0.0
2,8, 1, 8, 0,17, 0.00,60.00,Sunday
2695,-6.102499219766017
1929,18.00000010393059
3063,1365681.3145173707
3064,0.0
2,8, 1, 8, 0,18, 0.00,60.00,Sunday
2695,-6.098866809682376
1929,18.000000100605765
3063,1324572.620196321
3064,0.0
2,8, 1, 8, 0,19, 0.00,60.00,Sunday
2695,-6.6020175578600759
1929,18.000000102962305
3063,1267940.4561915666
3064,0.0
2,8, 1, 8, 0,20, 0.00,60.00,Sunday
2695,-6.596065847720262
1929,18.000000106584534
3063,1211339.1581032437
3064,0.0
2,8, 1, 8, 0,21, 0.00,60.00,Sunday
2695,-6.590883418792996
1929,18.000000108821163
3063,1173409.8778182648
3064,0.0
2,8, 1, 8, 0,22, 0.00,60.00,Sunday
2695,-6.586343687279285
1929,18.000000108080589
3063,1157578.561670057
3064,0.0
2,8, 1, 8, 0,23, 0.00,60.00,Sunday
2695,-6.582183562734386
1929,18.00000011051274
3063,1145027.8735400527
3064,0.0
2,8, 1, 8, 0,24, 0.00,60.00,Sunday
2695,-6.5793480576480809
1929,18.00000012279367
3063,1133267.166186002
3064,0.0
2,9, 1, 9, 0, 1, 0.00,60.00,Monday
2695,-6.578650528493018
1929,18.000004442399339
3063,1126689.4356688832
3064,0.0
2,9, 1, 9, 0, 2, 0.00,60.00,Monday
2695,-6.579646388370814
1929,18.000025532444778
3063,1132950.8667982165
3064,0.0
2,9, 1, 9, 0, 3, 0.00,60.00,Monday
2695,-6.581488820887931
1929,18.000031516956036
3063,1152437.0989198294
3064,0.0
2,9, 1, 9, 0, 4, 0.00,60.00,Monday
2695,-6.583897757778938
1929,18.000023318277504
3063,1181244.7674339852
3064,0.0
2,9, 1, 9, 0, 5, 0.00,60.00,Monday
2695,-6.586493656502202
1929,18.00001097572628