Program Version,EnergyPlus, Version 8.7.0-78a111df4a, YMD=2019.05.28 05:48
1,5,Environment Title[],Latitude[deg],Longitude[deg],Time Zone[],Elevation[m]
2,6,Day of Simulation[],Month[],Day of Month[],DST Indicator[1=yes 0=no],Hour[],StartMinute[],EndMinute[],DayType
3,3,Cumulative Day of Simulation[],Month[],Day of Month[],DST Indicator[1=yes 0=no],DayType  ! When Daily Report Variables Requested
4,2,Cumulative Days of Simulation[],Month[]  ! When Monthly Report Variables Requested
5,1,Cumulative Days of Simulation[] ! When Run Period Report Variables Requested
4826,1,BEDROOM2.2,Zone Ideal Loads Zone Total Heating Energy [J] !Hourly
4827,1,BEDROOM2.2,Zone Ideal Loads Zone Total Cooling Energy [J] !Hourly
4973,1,BEDROOM2.2,Zone Thermal Comfort Fanger Model PMV [] !Hourly
End of Data Dictionary
1,RUNPERIOD,  29.58, 106.47,   8.00, 259.10
2,1, 1, 1, 0, 1, 0.00,60.00,Thursday
4973,-1.1204755966155853
4826,2597239.945104209
4827,1.1696732309990859e-7
2,1, 1, 1, 0, 2, 0.00,60.00,Thursday
4973,-1.112182826403023
4826,2600461.571571536
4827,9.638370102038607e-8
2,1, 1, 1, 0, 3, 0.00,60.00,Thursday
4973,-1.1041086458938916
4826,2534307.719445686
4827,9.331415640190244e-8
2,1, 1, 1, 0, 4, 0.00,60.00,Thursday
4973,-1.0976688974237446
4826,2502605.214394834
4827,8.1956841313513e-8
2,1, 1, 1, 0, 5, 0.00,60.00,Thursday
4973,-1.0945062404291793
4826,2520661.7416506868
4827,1.400735527568031e-7
2,1, 1, 1, 0, 6, 0.00,60.00,Thursday
4973,-1.0945962186445824
4826,2545068.379850631
4827,1.3127419151715004e-7
2,1, 1, 1, 0, 7, 0.00,60.00,Thursday
4973,-1.0968197663736919
4826,2564742.683545889
4827,6.507434591185302e-8
2,1, 1, 1, 0, 8, 0.00,60.00,Thursday
4973,-1.7401491104919103
4826,0.0
4827,0.0
2,1, 1, 1, 0, 9, 0.00,60.00,Thursday
4973,-2.153988359076635
4826,0.0
4827,0.0
2,1, 1, 1, 0,10, 0.00,60.00,Thursday
4973,-2.194209259908775
4826,0.0
4827,0.0
2,1, 1, 1, 0,11, 0.00,60.00,Thursday
4973,-2.2034927837008295
4826,0.0
4827,0.0
2,1, 1, 1, 0,12, 0.00,60.00,Thursday
4973,-2.2013617473482145
4826,0.0
4827,0.0
2,1, 1, 1, 0,13, 0.00,60.00,Thursday
4973,-2.1862355209104047
4826,0.0
4827,0.0
2,1, 1, 1, 0,14, 0.00,60.00,Thursday
4973,-2.152711329345695
4826,0.0
4827,0.0
2,1, 1, 1, 0,15, 0.00,60.00,Thursday
4973,-2.10853735438062
4826,0.0
4827,0.0
2,1, 1, 1, 0,16, 0.00,60.00,Thursday
4973,-2.049582117366713
4826,0.0
4827,0.0
2,1, 1, 1, 0,17, 0.00,60.00,Thursday
4973,-1.97961836928137
4826,0.0
4827,0.0
2,1, 1, 1, 0,18, 0.00,60.00,Thursday
4973,-1.9191758489251703
4826,0.0
4827,0.0
2,1, 1, 1, 0,19, 0.00,60.00,Thursday
4973,-1.8700867988797494
4826,0.0
4827,0.0
2,1, 1, 1, 0,20, 0.00,60.00,Thursday
4973,-1.8397074430385619
4826,0.0
4827,0.0
2,1, 1, 1, 0,21, 0.00,60.00,Thursday
4973,-1.8760030369514973
4826,0.0
4827,0.0
2,1, 1, 1, 0,22, 0.00,60.00,Thursday
4973,-1.3275992062374649
4826,3179585.533168745
4827,5.823608262289781e-8
2,1, 1, 1, 0,23, 0.00,60.00,Thursday
4973,-1.1330749192953705
4826,2504364.918405861
4827,8.635652193333954e-8
2,1, 1, 1, 0,24, 0.00,60.00,Thursday
4973,-1.126398819019733
4826,2386125.179378409
4827,4.0108716348186138e-8
2,2, 1, 2, 0, 1, 0.00,60.00,Friday
4973,-1.122391208200964
4826,2567513.3396191506
4827,7.967204593032049e-8
2,2, 1, 2, 0, 2, 0.00,60.00,Friday
4973,-1.1195217742863335
4826,2558551.7908355265
4827,9.423501978744753e-8
2,2, 1, 2, 0, 3, 0.00,60.00,Friday
4973,-1.1178370366841493
4826,2557472.9058200207
4827,5.1670667744474488e-8
2,2, 1, 2, 0, 4, 0.00,60.00,Friday
4973,-1.1145531132915796
4826,2551250.665004366
4827,9.638370102038607e-8
2,2, 1, 2, 0, 5, 0.00,60.00,Friday
4973,-1.1106973367909339
4826,2539607.4617619116
4827,8.584493116359227e-8
2,2, 1, 2, 0, 6, 0.00,60.00,Friday
4973,-1.1070060447485784
4826,2532932.43483333
4827,1.0006715456256643e-7
2,2, 1, 2, 0, 7, 0.00,60.00,Friday
4973,-1.1036120094392157
4826,2523429.7097862919
4827,8.0831341620069e-8
2,2, 1, 2, 0, 8, 0.00,60.00,Friday
4973,-1.7073848408677912
4826,0.0
4827,0.0
2,2, 1, 2, 0, 9, 0.00,60.00,Friday
4973,-2.075037671306191
4826,0.0
4827,0.0
2,2, 1, 2, 0,10, 0.00,60.00,Friday
4973,-2.0598824325056657
4826,0.0
4827,0.0
2,2, 1, 2, 0,11, 0.00,60.00,Friday
4973,-2.045933091749324
4826,0.0
4827,0.0
2,2, 1, 2, 0,12, 0.00,60.00,Friday
4973,-2.0358045449369746
4826,0.0
4827,0.0
2,2, 1, 2, 0,13, 0.00,60.00,Friday
4973,-2.0232936617750565
4826,0.0
4827,0.0
2,2, 1, 2, 0,14, 0.00,60.00,Friday
4973,-2.009060065153858
4826,0.0
4827,0.0
2,2, 1, 2, 0,15, 0.00,60.00,Friday
4973,-1.981624850876813
4826,0.0
4827,0.0
2,2, 1, 2, 0,16, 0.00,60.00,Friday
4973,-1.9445288500194793
4826,0.0
4827,0.0
2,2, 1, 2, 0,17, 0.00,60.00,Friday
4973,-1.9208718178933513
4826,0.0
4827,0.0
2,2, 1, 2, 0,18, 0.00,60.00,Friday
4973,-1.941293466278906
4826,0.0
4827,0.0
2,2, 1, 2, 0,19, 0.00,60.00,Friday
4973,-1.981390557359287
4826,0.0
4827,0.0
2,2, 1, 2, 0,20, 0.00,60.00,Friday
4973,-2.0036303654616338
4826,0.0
4827,0.0
2,2, 1, 2, 0,21, 0.00,60.00,Friday
4973,-2.027552455415214
4826,0.0
4827,0.0
2,2, 1, 2, 0,22, 0.00,60.00,Friday
4973,-1.3700955922786969
4826,3535162.6462103317
4827,6.401023711077869e-8
2,2, 1, 2, 0,23, 0.00,60.00,Friday
4973,-1.1371553505677379
4826,2510572.4646787999
4827,8.001279638847336e-8
2,2, 1, 2, 0,24, 0.00,60.00,Friday
4973,-1.118904822382296
4826,2386858.3630123387
4827,6.855316314613447e-9
2,3, 1, 3, 0, 1, 0.00,60.00,Saturday
4973,-1.111158973162499
4826,2587244.3849093799
4827,9.474226978702725e-8
2,3, 1, 3, 0, 2, 0.00,60.00,Saturday
4973,-1.1084941591596443
4826,2618904.8085953055
4827,1.1551719580893405e-7
2,3, 1, 3, 0, 3, 0.00,60.00,Saturday
4973,-1.110695546920068
4826,2631392.9644967026
4827,1.097873791877646e-7
2,3, 1, 3, 0, 4, 0.00,60.00,Saturday
4973,-1.1128453577991602
4826,2630672.107437525
4827,5.4433257901109758e-8
2,3, 1, 3, 0, 5, 0.00,60.00,Saturday
4973,-1.1136652228538524
4826,2621245.214918703
4827,9.382574717164971e-8
2,3, 1, 3, 0, 6, 0.00,60.00,Saturday
4973,-1.1130826388775415
4826,2597844.6529665316
4827,6.425580068025738e-8
2,3, 1, 3, 0, 7, 0.00,60.00,Saturday
4973,-1.1108036103767612
4826,2557121.9269526058
4827,5.9549165598582479e-8
2,3, 1, 3, 0, 8, 0.00,60.00,Saturday
4973,-1.1066615468300377
4826,2512324.783922079
4827,6.647269401582889e-8
2,3, 1, 3, 0, 9, 0.00,60.00,Saturday
4973,-1.1032790034698606
4826,2520093.9178696328
4827,7.172502591856755e-8
2,3, 1, 3, 0,10, 0.00,60.00,Saturday
4973,-1.0996589904804688
4826,2473842.077215234
4827,9.310952009400353e-8
2,3, 1, 3, 0,11, 0.00,60.00,Saturday
4973,-1.0967782765173436
4826,2487487.639015286
4827,2.772821972030215e-8
2,3, 1, 3, 0,12, 0.00,60.00,Saturday
4973,-1.0945186987776774
4826,2447891.8985770128
4827,5.873062036698684e-8
2,3, 1, 3, 0,13, 0.00,60.00,Saturday
4973,-1.0915878977668699
4826,2411949.8823745518
4827,7.898961484897882e-8
2,3, 1, 3, 0,14, 0.00,60.00,Saturday
4973,-1.0882971847335026
4826,2378571.830189054
4827,2.0872903405688704e-8
2,3, 1, 3, 0,15, 0.00,60.00,Saturday
4973,-1.0840158597561836
4826,2311913.1669463987
4827,6.35395736026112e-8
2,3, 1, 3, 0,16, 0.00,60.00,Saturday
4973,-1.0780869348326859
4826,2294889.7476202517
4827,3.6425262806005779e-8
2,3, 1, 3, 0,17, 0.00,60.00,Saturday
4973,-1.0734130930319439
4826,2324470.8956996134
4827,5.289848559186794e-8
2,3, 1, 3, 0,18, 0.00,60.00,Saturday
4973,-1.0691037526758312
4826,2306361.197142576
4827,5.392166713136248e-8
2,3, 1, 3, 0,19, 0.00,60.00,Saturday
4973,-1.062729853142732
4826,2272197.2260483235
4827,2.42494024860207e-8
2,3, 1, 3, 0,20, 0.00,60.00,Saturday
4973,-1.0555688027678727
4826,2129476.4015948527
4827,1.4529177860822529e-8
2,3, 1, 3, 0,21, 0.00,60.00,Saturday
4973,-1.0477624103425392
4826,2057940.6232867998
4827,2.609112925711088e-8
2,3, 1, 3, 0,22, 0.00,60.00,Saturday
4973,-1.0398548853655059
4826,2030189.2604943128
4827,7.5203843152849e-8
2,3, 1, 3, 0,23, 0.00,60.00,Saturday
4973,-1.033613506345727
4826,2017112.5068421954
4827,1.9133494788547979e-8
2,3, 1, 3, 0,24, 0.00,60.00,Saturday
4973,-1.0276873024892704
4826,1950328.264091294
4827,5.392166713136248e-8
2,4, 1, 4, 0, 1, 0.00,60.00,Sunday
4973,-1.0242690536432924
4826,2087199.8409374967
4827,7.147593041164555
2,4, 1, 4, 0, 2, 0.00,60.00,Sunday
4973,-1.0201905209833767
4826,2088081.1857889014
4827,4.461071512196213e-8
2,4, 1, 4, 0, 3, 0.00,60.00,Sunday
4973,-1.0172889943089312
4826,2070050.4559253012
4827,8.287770469905809e-8
2,4, 1, 4, 0, 4, 0.00,60.00,Sunday
4973,-1.0144388884798624
4826,2057745.674104728
4827,3.2741809263825418e-9
2,4, 1, 4, 0, 5, 0.00,60.00,Sunday
4973,-1.0113069180726562
4826,2049830.378382949
4827,1.167450136563275e-7
2,4, 1, 4, 0, 6, 0.00,60.00,Sunday
4973,-1.007944194464819
4826,2046281.7989667755
4827,5.8628302213037389e-8
2,4, 1, 4, 0, 7, 0.00,60.00,Sunday
4973,-1.005033605909991
4826,2041635.6703985765
4827,5.402398528531194e-8
2,4, 1, 4, 0, 8, 0.00,60.00,Sunday
4973,-1.0028394428073258
4826,2032473.940937309
4827,5.024162419431377e-8
2,4, 1, 4, 0, 9, 0.00,60.00,Sunday
4973,-1.0027117864957139
4826,2073684.4926898343
4827,2.2714630176778884e-8
2,4, 1, 4, 0,10, 0.00,60.00,Sunday
4973,-1.0031946046992624
4826,2048968.024722712
4827,6.507434591185302e-8
2,4, 1, 4, 0,11, 0.00,60.00,Sunday
4973,-1.0040398344040727
4826,2081047.1720873209
4827,2.660272002685815e-9
2,4, 1, 4, 0,12, 0.00,60.00,Sunday
4973,-1.0068490514461764
4826,2049810.6581396494
4827,5.0238213589182126e-8
2,4, 1, 4, 0,13, 0.00,60.00,Sunday
4973,-1.008121175592227
4826,2009192.8218381
4827,4.921503204968758e-8
2,4, 1, 4, 0,14, 0.00,60.00,Sunday
4973,-1.0084517445567452
4826,1954268.7123510438
4827,5.3717030823463577e-8
2,4, 1, 4, 0,15, 0.00,60.00,Sunday
4973,-1.0053794986222462
4826,1845234.4598983003
4827,5.908873390580993e-8
2,4, 1, 4, 0,16, 0.00,60.00,Sunday
4973,-0.9972325342952452
4826,1788897.2233656867
4827,4.056914804095868e-8
2,4, 1, 4, 0,17, 0.00,60.00,Sunday
4973,-0.9885155298337168
4826,1818270.341932397
4827,1.8314949556952344e-8
2,4, 1, 4, 0,18, 0.00,60.00,Sunday
4973,-0.9832646220115024
4826,1823798.2280281953
4827,4.865228220296558e-8
2,4, 1, 4, 0,19, 0.00,60.00,Sunday
4973,-0.9783661798430876
4826,1829670.371216822
4827,7.755716069368646e-8
2,4, 1, 4, 0,20, 0.00,60.00,Sunday
4973,-0.9734838145177901
4826,1726546.8345490713
4827,4.044125034852186e-8
2,4, 1, 4, 0,21, 0.00,60.00,Sunday
4973,-0.9704366199163916
4826,1687955.0839719605
4827,7.019025360932574e-8
2,4, 1, 4, 0,22, 0.00,60.00,Sunday
4973,-0.9678309745362738
4826,1680457.2855874955
4827,3.161630957038142e-8
2,4, 1, 4, 0,23, 0.00,60.00,Sunday
4973,-0.9655454000052655
4826,1674472.0382924535
4827,2.0105517251067796e-8
2,4, 1, 4, 0,24, 0.00,60.00,Sunday
4973,-0.9633817865286036
4826,1608702.4806545003
4827,1.5705836631241256e-8
2,5, 1, 5, 0, 1, 0.00,60.00,Monday
4973,-0.9637154026289602
4826,1743656.4222801347
4827,0.6331771165611144
2,5, 1, 5, 0, 2, 0.00,60.00,Monday
4973,-0.9633230458043829
4826,1741522.6525932602
4827,1.2431655704858713e-8
2,5, 1, 5, 0, 3, 0.00,60.00,Monday
4973,-0.9639852474722873
4826,1759281.4954364424
4827,2.036131263594143e-8
2,5, 1, 5, 0, 4, 0.00,60.00,Monday
4973,-0.9664500764012621
4826,1780054.4459416308
4827,6.174900590849575e-8
2,5, 1, 5, 0, 5, 0.00,60.00,Monday
4973,-0.9701122324383559
4826,1795035.60704514
4827,3.81646714231465e-8
2,5, 1, 5, 0, 6, 0.00,60.00,Monday
4973,-0.973459312411206
4826,1811163.9647280432
4827,4.3024783735745589e-8
2,5, 1, 5, 0, 7, 0.00,60.00,Monday
4973,-0.976630019496283
4826,1827980.1037265138
4827,4.5224624045658859e-8
2,5, 1, 5, 0, 8, 0.00,60.00,Monday
4973,-1.5116633358524264
4826,0.0
4827,0.0
2,5, 1, 5, 0, 9, 0.00,60.00,Monday
4973,-1.8183445445419174
4826,0.0
4827,0.0
2,5, 1, 5, 0,10, 0.00,60.00,Monday
4973,-1.8432949851143042
4826,0.0
4827,0.0
2,5, 1, 5, 0,11, 0.00,60.00,Monday
4973,-1.8579136749853343
4826,0.0
4827,0.0
2,5, 1, 5, 0,12, 0.00,60.00,Monday
4973,-1.8695479607386386
4826,0.0
4827,0.0
2,5, 1, 5, 0,13, 0.00,60.00,Monday
4973,-1.8761186978319789
4826,0.0
4827,0.0
2,5, 1, 5, 0,14, 0.00,60.00,Monday
4973,-1.8750982499848459
4826,0.0
4827,0.0
2,5, 1, 5, 0,15, 0.00,60.00,Monday
4973,-1.8717788841003007
4826,0.0
4827,0.0
2,5, 1, 5, 0,16, 0.00,60.00,Monday
4973,-1.8661154001926537
4826,0.0
4827,0.0
2,5, 1, 5, 0,17, 0.00,60.00,Monday
4973,-1.864037339411579
4826,0.0
4827,0.0
2,5, 1, 5, 0,18, 0.00,60.00,Monday
4973,-1.8633250202143557
4826,0.0
4827,0.0
2,5, 1, 5, 0,19, 0.00,60.00,Monday
4973,-1.8648840209020826
4826,0.0
4827,0.0
2,5, 1, 5, 0,20, 0.00,60.00,Monday
4973,-1.856461346089525
4826,0.0
4827,0.0
2,5, 1, 5, 0,21, 0.00,60.00,Monday
4973,-1.869854325979762
4826,0.0
4827,0.0
2,5, 1, 5, 0,22, 0.00,60.00,Monday
4973,-1.2898881350424856
4826,3037901.3787481326
4827,5.525180313270539e-8
2,5, 1, 5, 0,23, 0.00,60.00,Monday
4973,-1.0874022292202859
4826,2158847.842167411
4827,5.566107574850321e-8
2,5, 1, 5, 0,24, 0.00,60.00,Monday
4973,-1.0744991518761654
4826,2039432.993250536
4827,4.9112713895738128e-9
2,6, 1, 6, 0, 1, 0.00,60.00,Tuesday
4973,-1.064914928910625
4826,2220868.705761469
4827,6.51519140252617
2,6, 1, 6, 0, 2, 0.00,60.00,Tuesday
4973,-1.0572416269746033
4826,2216874.6144759675
4827,6.220943760126829e-8
2,6, 1, 6, 0, 3, 0.00,60.00,Tuesday
4973,-1.0494443891807209
4826,2172979.0169847297
4827,7.991047823452391e-8
2,6, 1, 6, 0, 4, 0.00,60.00,Tuesday
4973,-1.0421563810209523
4826,2143024.4179261128
4827,2.588649294921197e-8
2,6, 1, 6, 0, 5, 0.00,60.00,Tuesday
4973,-1.0354808536996286
4826,2130050.4102990857
4827,1.0334133548894897e-7
2,6, 1, 6, 0, 6, 0.00,60.00,Tuesday
4973,-1.0293909939159638
4826,2114397.09452365
4827,1.0907115211011842e-7
2,6, 1, 6, 0, 7, 0.00,60.00,Tuesday
4973,-1.0243442981628004
4826,2100731.4972818519
4827,7.059952622512356e-8
2,6, 1, 6, 0, 8, 0.00,60.00,Tuesday
4973,-1.5557742523375636
4826,0.0
4827,0.0
2,6, 1, 6, 0, 9, 0.00,60.00,Tuesday
4973,-1.8896684587445876
4826,0.0
4827,0.0
2,6, 1, 6, 0,10, 0.00,60.00,Tuesday
4973,-1.866901262912515
4826,0.0
4827,0.0
2,6, 1, 6, 0,11, 0.00,60.00,Tuesday
4973,-1.8584124795228148
4826,0.0
4827,0.0
2,6, 1, 6, 0,12, 0.00,60.00,Tuesday
4973,-1.8467264855907236
4826,0.0
4827,0.0
2,6, 1, 6, 0,13, 0.00,60.00,Tuesday
4973,-1.8129981146830088
4826,0.0
4827,0.0
2,6, 1, 6, 0,14, 0.00,60.00,Tuesday
4973,-1.7263428338448719
4826,0.0
4827,0.0
2,6, 1, 6, 0,15, 0.00,60.00,Tuesday
4973,-1.6876924673088039
4826,0.0
4827,0.0
2,6, 1, 6, 0,16, 0.00,60.00,Tuesday
4973,-1.6397875830558067
4826,0.0
4827,0.0
2,6, 1, 6, 0,17, 0.00,60.00,Tuesday
4973,-1.597109730026582
4826,0.0
4827,0.0
2,6, 1, 6, 0,18, 0.00,60.00,Tuesday
4973,-1.6006207310836432
4826,0.0
4827,0.0
2,6, 1, 6, 0,19, 0.00,60.00,Tuesday
4973,-1.6266754869194518
4826,0.0
4827,0.0
2,6, 1, 6, 0,20, 0.00,60.00,Tuesday
4973,-1.6386881147161603
4826,0.0
4827,0.0
2,6, 1, 6, 0,21, 0.00,60.00,Tuesday
4973,-1.6632923824100095
4826,0.0
4827,0.0
2,6, 1, 6, 0,22, 0.00,60.00,Tuesday
4973,-1.1731287019864974
4826,2507627.2345829058
4827,3.037484930246137e-8
2,6, 1, 6, 0,23, 0.00,60.00,Tuesday
4973,-1.0022518464376474
4826,1787427.6189850735
4827,6.307914190983866e-8
2,6, 1, 6, 0,24, 0.00,60.00,Tuesday
4973,-0.9917896142845653
4826,1688905.4366857173
4827,7.100879884092137e-8
2,7, 1, 7, 0, 1, 0.00,60.00,Wednesday
4973,-0.9876619761115052
4826,1888816.9790894958
4827,8.612460078438744e-8
2,7, 1, 7, 0, 2, 0.00,60.00,Wednesday
4973,-0.9859044147484335
4826,1910816.3861230487
4827,1.1715428627212532e-7
2,7, 1, 7, 0, 3, 0.00,60.00,Wednesday
4973,-0.9871478961669855
4826,1948722.6951125505
4827,1.268745108973235e-7
2,7, 1, 7, 0, 4, 0.00,60.00,Wednesday
4973,-0.9903817985561034
4826,2004266.6722143596
4827,4.768025974044576e-8
2,7, 1, 7, 0, 5, 0.00,60.00,Wednesday
4973,-0.9957721065279144
4826,2075905.372638557
4827,2.3226220946526156e-8
2,7, 1, 7, 0, 6, 0.00,60.00,Wednesday
4973,-1.0029607851031748
4826,2145470.621843784
4827,4.84988049720414e-8
2,7, 1, 7, 0, 7, 0.00,60.00,Wednesday
4973,-1.0104525657916697
4826,2204967.678516037
4827,4.993125912733376e-8
2,7, 1, 7, 0, 8, 0.00,60.00,Wednesday
4973,-1.663028745055515
4826,0.0
4827,0.0
2,7, 1, 7, 0, 9, 0.00,60.00,Wednesday
4973,-2.022687274914199
4826,0.0
4827,0.0
2,7, 1, 7, 0,10, 0.00,60.00,Wednesday
4973,-2.037285545705602
4826,0.0
4827,0.0
2,7, 1, 7, 0,11, 0.00,60.00,Wednesday
4973,-2.0268068533205039
4826,0.0
4827,0.0
2,7, 1, 7, 0,12, 0.00,60.00,Wednesday
4973,-2.0162860409631477
4826,0.0
4827,0.0
2,7, 1, 7, 0,13, 0.00,60.00,Wednesday
4973,-1.9461344928503138
4826,0.0
4827,0.0
2,7, 1, 7, 0,14, 0.00,60.00,Wednesday
4973,-1.849134186652219
4826,0.0
4827,0.0
2,7, 1, 7, 0,15, 0.00,60.00,Wednesday
4973,-1.756743272907873
4826,0.0
4827,0.0
2,7, 1, 7, 0,16, 0.00,60.00,Wednesday
4973,-1.624003221675675
4826,0.0
4827,0.0
2,7, 1, 7, 0,17, 0.00,60.00,Wednesday
4973,-1.5386679186065005
4826,0.0
4827,0.0
2,7, 1, 7, 0,18, 0.00,60.00,Wednesday
4973,-1.5488742469749335
4826,0.0
4827,0.0
2,7, 1, 7, 0,19, 0.00,60.00,Wednesday
4973,-1.5712042375025655
4826,0.0
4827,0.0
2,7, 1, 7, 0,20, 0.00,60.00,Wednesday
4973,-1.5812790621570246
4826,0.0
4827,0.0
2,7, 1, 7, 0,21, 0.00,60.00,Wednesday
4973,-1.5972862758720688
4826,0.0
4827,0.0
2,7, 1, 7, 0,22, 0.00,60.00,Wednesday
4973,-1.1514075424991684
4826,2225495.8333671039
4827,5.4907332014408897e-8
2,7, 1, 7, 0,23, 0.00,60.00,Wednesday
4973,-0.9985337878588423
4826,1602565.3052008495
4827,4.220623850414995e-8
2,7, 1, 7, 0,24, 0.00,60.00,Wednesday
4973,-0.9883189850192662
4826,1514950.1121158838
4827,5.325659913069103e-8
2,8, 1, 8, 0, 1, 0.00,60.00,Thursday
4973,-0.9837566875780124
4826,1721216.9525751463
4827,5.988121236961369e-8
2,8, 1, 8, 0, 2, 0.00,60.00,Thursday
4973,-0.9803293425724955
4826,1737241.7722414903
4827,4.936850928061176e-8
2,8, 1, 8, 0, 3, 0.00,60.00,Thursday
4973,-0.9778133087527596
4826,1768507.301145903
4827,7.0599526225123558e-9
2,8, 1, 8, 0, 4, 0.00,60.00,Thursday
4973,-0.9762811056221773
4826,1798665.4087561425
4827,1.304556462855544e-8
2,8, 1, 8, 0, 5, 0.00,60.00,Thursday
4973,-0.9753910505841525
4826,1818938.6364099179
4827,6.645564099017065e-8
2,8, 1, 8, 0, 6, 0.00,60.00,Thursday
4973,-0.9745452149005092
4826,1838833.624883163
4827,3.4225422496092509e-8
2,8, 1, 8, 0, 7, 0.00,60.00,Thursday
4973,-0.9747230241997996
4826,1849917.2907825174
4827,6.947402653167956e-8
2,8, 1, 8, 0, 8, 0.00,60.00,Thursday
4973,-1.493834664493618
4826,0.0
4827,0.0
2,8, 1, 8, 0, 9, 0.00,60.00,Thursday
4973,-1.8104863206492957
4826,0.0
4827,0.0
2,8, 1, 8, 0,10, 0.00,60.00,Thursday
4973,-1.813108537224981
4826,0.0
4827,0.0
2,8, 1, 8, 0,11, 0.00,60.00,Thursday
4973,-1.8012470205459129
4826,0.0
4827,0.0
2,8, 1, 8, 0,12, 0.00,60.00,Thursday
4973,-1.7860434363426896
4826,0.0
4827,0.0
2,8, 1, 8, 0,13, 0.00,60.00,Thursday
4973,-1.7564013817244444
4826,0.0
4827,0.0
2,8, 1, 8, 0,14, 0.00,60.00,Thursday
4973,-1.7248960075414562
4826,0.0
4827,0.0
2,8, 1, 8, 0,15, 0.00,60.00,Thursday
4973,-1.6977582604018582
4826,0.0
4827,0.0
2,8, 1, 8, 0,16, 0.00,60.00,Thursday
4973,-1.675630708085946
4826,0.0
4827,0.0
2,8, 1, 8, 0,17, 0.00,60.00,Thursday
4973,-1.6565118459377193
4826,0.0
4827,0.0
2,8, 1, 8, 0,18, 0.00,60.00,Thursday
4973,-1.6530912783670227
4826,0.0
4827,0.0
2,8, 1, 8, 0,19, 0.00,60.00,Thursday
4973,-1.6639995279948945
4826,0.0
4827,0.0
2,8, 1, 8, 0,20, 0.00,60.00,Thursday
4973,-1.671815662246846
4826,0.0
4827,0.0
2,8, 1, 8, 0,21, 0.00,60.00,Thursday
4973,-1.6803850654549884
4826,0.0
4827,0.0
2,8, 1, 8, 0,22, 0.00,60.00,Thursday
4973,-1.177618072564663
4826,2430469.0376527418
4827,3.585910235415213e-8
2,8, 1, 8, 0,23, 0.00,60.00,Thursday
4973,-1.0032328376742755
4826,1678903.9076504019
4827,5.6070348364301029e-8
2,8, 1, 8, 0,24, 0.00,60.00,Thursday
4973,-0.9886668579052564
4826,1590850.3692805912
4827,4.51223058917094e-8
2,9, 1, 9, 0, 1, 0.00,60.00,Friday
4973,-0.9828764953180915
4826,1810873.1085056319
4827,3.885337004508723e-8
2,9, 1, 9, 0, 2, 0.00,60.00,Friday
4973,-0.981090390091397
4826,1844239.5922941094
4827,3.0388491722987968e-8
2,9, 1, 9, 0, 3, 0.00,60.00,Friday
4973,-0.9804044272218102
4826,1858476.6715828907
4827,4.604316927725449e-8
2,9, 1, 9, 0, 4, 0.00,60.00,Friday
4973,-0.9791663472160394
4826,1857211.171224326
4827,4.092726157978177e-10
2,9, 1, 9, 0, 5, 0.00,60.00,Friday
4973,-0.9772575467420638
4826,1855394.9940927854
4827,1.1858674042741768e-7
2,9, 1, 9, 0, 6, 0.00,60.00,Friday
4973,-0.9754018564780393
4826,1856655.5971284817
4827,8.79936123965308e-9
2,9, 1, 9, 0, 7, 0.00,60.00,Friday
4973,-0.9745857874965563
4826,1859125.1059916248
4827,4.870344127994031e-8
2,9, 1, 9, 0, 8, 0.00,60.00,Friday
4973,-1.4872722339322238
4826,0.0
4827,0.0
2,9, 1, 9, 0, 9, 0.00,60.00,Friday
4973,-1.810337052744498
4826,0.0
4827,0.0
2,9, 1, 9, 0,10, 0.00,60.00,Friday
4973,-1.830016988520341
4826,0.0
4827,0.0
2,9, 1, 9, 0,11, 0.00,60.00,Friday
4973,-1.8380414643937198
4826,0.0
4827,0.0
2,9, 1, 9, 0,12, 0.00,60.00,Friday
4973,-1.8409295208705455
4826,0.0
4827,0.0
2,9, 1, 9, 0,13, 0.00,60.00,Friday
4973,-1.8428430558148357
4826,0.0
4827,0.0
2,9, 1, 9, 0,14, 0.00,60.00,Friday
4973,-1.839212222420024
4826,0.0
4827,0.0
2,9, 1, 9, 0,15, 0.00,60.00,Friday
4973,-1.8390282772376275
4826,0.0
4827,0.0
2,9, 1, 9, 0,16, 0.00,60.00,Friday
4973,-1.8381227203486764
4826,0.0
4827,0.0
2,9, 1, 9, 0,17, 0.00,60.00,Friday
4973,-1.8434206212845835
4826,0.0
4827,0.0
2,9, 1, 9, 0,18, 0.00,60.00,Friday
4973,-1.8545626415091959
4826,0.0
4827,0.0
2,9, 1, 9, 0,19, 0.00,60.00,Friday
4973,-1.8629911015628032
4826,0.0
4827,0.0
2,9, 1, 9, 0,20, 0.00,60.00,Friday
4973,-1.8546132885398712
4826,0.0
4827,0.0
2,9, 1, 9, 0,21, 0.00,60.00,Friday
4973,-1.854079662975679
4826,0.0
4827,0.0
2,9, 1, 9, 0,22, 0.00,60.00,Friday
4973,-1.2708604039387304
4826,2949505.2668910964
4827,4.889784577244427e-8
2,9, 1, 9, 0,23, 0.00,60.00,Friday
4973,-1.073325982931168
4826,2085392.6297013688
4827,2.701199264265597e-8
2,9, 1, 9, 0,24, 0.00,60.00,Friday
4973,-1.05951442566379
4826,1943503.7353637564
4827,3.9904080040287229e-8
2,10, 1,10, 0, 1, 0.00,60.00,Saturday
4973,-1.0516529871971004
4826,2099682.6860404608
4827,5.359424903872423e-8
2,10, 1,10, 0, 2, 0.00,60.00,Saturday
4973,-1.045837614356914
4826,2075537.3392937305
4827,8.349161362275481e-8
2,10, 1,10, 0, 3, 0.00,60.00,Saturday
4973,-1.0405869614895192
4826,2041450.7060123312
4827,2.8239810490049423e-8
2,10, 1,10, 0, 4, 0.00,60.00,Saturday
4973,-1.0355095489471298
4826,2016569.522523225
4827,7.489688869100064e-8
2,10, 1,10, 0, 5, 0.00,60.00,Saturday
4973,-1.030346798569988
4826,2002031.77515482
4827,1.1193606042070314e-7
2,10, 1,10, 0, 6, 0.00,60.00,Saturday
4973,-1.0255962313727212
4826,1994561.4624900588
4827,1.1357315088389442e-8
2,10, 1,10, 0, 7, 0.00,60.00,Saturday
4973,-1.021761924846444
4826,1986666.540528914
4827,4.7270987124647948e-8
2,10, 1,10, 0, 8, 0.00,60.00,Saturday
4973,-1.0188504673267252
4826,1972529.58871606
4827,6.121354090282694e-8
2,10, 1,10, 0, 9, 0.00,60.00,Saturday
4973,-1.0159959411620399
4826,2020315.5541962416
4827,8.635652193333954e-8
2,10, 1,10, 0,10, 0.00,60.00,Saturday
4973,-1.0092660351007652
4826,1969056.693267741
4827,3.959712557843886e-8
2,10, 1,10, 0,11, 0.00,60.00,Saturday
4973,-1.0025134483323699
4826,1954135.520696119
4827,6.077698344597593e-8
2,10, 1,10, 0,12, 0.00,60.00,Saturday
4973,-0.9967908530629305
4826,1873218.635250512
4827,5.161950866749976e-8
2,10, 1,10, 0,13, 0.00,60.00,Saturday
4973,-0.9913319770283129
4826,1781266.2015430376
4827,2.8035174182150514e-8
2,10, 1,10, 0,14, 0.00,60.00,Saturday
4973,-0.9919984569718028
4826,1717156.3021756286
4827,3.673221726785414e-8
2,10, 1,10, 0,15, 0.00,60.00,Saturday
4973,-0.9821593737658249
4826,1553825.6127152532
4827,2.8751401259796695e-8
2,10, 1,10, 0,16, 0.00,60.00,Saturday
4973,-0.9629029217179916
4826,1440463.1795018546
4827,5.6428461903124119e-8
2,10, 1,10, 0,17, 0.00,60.00,Saturday
4973,-0.9433190895719346
4826,1448488.5131933045
4827,4.2308556658099408e-8
2,10, 1,10, 0,18, 0.00,60.00,Saturday
4973,-0.9311625162247078
4826,1450748.0802020215
4827,5.0187054512207399e-8
2,10, 1,10, 0,19, 0.00,60.00,Saturday
4973,-0.925645855131761
4826,1470188.7938962584
4827,4.363869265944231e-8
2,10, 1,10, 0,20, 0.00,60.00,Saturday
4973,-0.922194698049296
4826,1372639.8443939104
4827,5.098002020531567e-8
2,10, 1,10, 0,21, 0.00,60.00,Saturday
4973,-0.9194269671034457
4826,1341583.66366932
4827,5.801439328934066e-8
2,10, 1,10, 0,22, 0.00,60.00,Saturday
4973,-0.913772568009492
4826,1324169.8959881524
4827,3.1104718800634149e-8
2,10, 1,10, 0,23, 0.00,60.00,Saturday
4973,-0.9068071787637416
4826,1322906.3657912834
4827,7.192966222646646e-8
2,10, 1,10, 0,24, 0.00,60.00,Saturday
4973,-0.9009261762544506
4826,1303110.0627330198
4827,4.721982804767322e-8
2,11, 1,11, 0, 1, 0.00,60.00,Sunday
4973,-0.9024412370579316
4826,1507541.5498074075
4827,4.25485170905761e-8
2,11, 1,11, 0, 2, 0.00,60.00,Sunday
4973,-0.9085475839926712
4826,1578137.6625050707
4827,4.5071146814734678e-8
2,11, 1,11, 0, 3, 0.00,60.00,Sunday
4973,-0.9164721961361766
4826,1619939.0003743189
4827,0.0
2,11, 1,11, 0, 4, 0.00,60.00,Sunday
4973,-0.9218603901798534
4826,1641789.2052081417
4827,3.780655788432341e-8
2,11, 1,11, 0, 5, 0.00,60.00,Sunday
4973,-0.9252127149220142
4826,1667134.0494834199
4827,2.6346924641984516e-8
2,11, 1,11, 0, 6, 0.00,60.00,Sunday
4973,-0.9295409213810006
4826,1698252.611944851
4827,9.085852070711553e-8
2,11, 1,11, 0, 7, 0.00,60.00,Sunday
4973,-0.9347884272986047
4826,1726653.4239105115
4827,3.622062649810687e-8
2,11, 1,11, 0, 8, 0.00,60.00,Sunday
4973,-0.9387322760912983
4826,1723440.2474214819
4827,2.641684204718331e-8
2,11, 1,11, 0, 9, 0.00,60.00,Sunday
4973,-0.9403023311402892
4826,1717973.9537737615
4827,1.5347723092418165e-10
2,11, 1,11, 0,10, 0.00,60.00,Sunday
4973,-0.938068414503879
4826,1655914.3793199612
4827,1.8775381249724888e-8
2,11, 1,11, 0,11, 0.00,60.00,Sunday
4973,-0.9340119343797806
4826,1669767.6226150837
4827,1.8417267710901798e-8
2,11, 1,11, 0,12, 0.00,60.00,Sunday
4973,-0.9308707722899976
4826,1642400.3382419686
4827,3.98529209633125e-8
2,11, 1,11, 0,13, 0.00,60.00,Sunday
4973,-0.9288318908028319
4826,1620040.7878784536
4827,5.20799403602723e-8
2,11, 1,11, 0,14, 0.00,60.00,Sunday
4973,-0.9269633827903805
4826,1606132.9377471428
4827,0.0
2,11, 1,11, 0,15, 0.00,60.00,Sunday
4973,-0.924951214892201
4826,1522218.2996104246
4827,6.000959729135502e-8
2,11, 1,11, 0,16, 0.00,60.00,Sunday
4973,-0.9220967033036439
4826,1495926.2553888313
4827,3.923901203961577e-8
2,11, 1,11, 0,17, 0.00,60.00,Sunday
4973,-0.920792155075495
4826,1537438.6169037796
4827,3.7908876038272868e-8
2,11, 1,11, 0,18, 0.00,60.00,Sunday
4973,-0.9205926155038874
4826,1527848.7391211023
4827,4.9317350203637037e-8
2,11, 1,11, 0,19, 0.00,60.00,Sunday
4973,-0.9184905569975481
4826,1505395.202458649
4827,5.6991211749846119e-8
2,11, 1,11, 0,20, 0.00,60.00,Sunday
4973,-0.9161459893285526
4826,1365235.119188503
4827,3.340687726449687e-8
2,11, 1,11, 0,21, 0.00,60.00,Sunday
4973,-0.9136775891436946
4826,1308422.4596956326
4827,5.7758597904467027e-8
2,11, 1,11, 0,22, 0.00,60.00,Sunday
4973,-0.9112568982005552
4826,1291648.0667590865
4827,2.5374902179464699e-8
2,11, 1,11, 0,23, 0.00,60.00,Sunday
4973,-0.910820705471536
4826,1281415.8682405814
4827,5.192646312934812e-8
2,11, 1,11, 0,24, 0.00,60.00,Sunday
4973,-0.9107559640662168
4826,1222572.2396636974
4827,5.161950866749976e-8
2,12, 1,12, 0, 1, 0.00,60.00,Monday
4973,-0.9125277261359521
4826,1368478.3518600423
4827,3.71257486291982e-8
2,12, 1,12, 0, 2, 0.00,60.00,Monday
4973,-0.9144511527974353
4826,1383055.6977815864
4827,3.100240064668469e-8
2,12, 1,12, 0, 3, 0.00,60.00,Monday
4973,-0.9168690981631933
4826,1416598.5064884758
4827,8.078018254309427e-8
2,12, 1,12, 0, 4, 0.00,60.00,Monday
4973,-0.9188794733891572
4826,1447687.704824483
4827,3.5709035728359598e-8
2,12, 1,12, 0, 5, 0.00,60.00,Monday
4973,-0.9194293572767666
4826,1476632.6782569823
4827,4.583853296935558e-8
2,12, 1,12, 0, 6, 0.00,60.00,Monday
4973,-0.9185252423390087
4826,1504066.6988018736
4827,4.09784206567565e-8
2,12, 1,12, 0, 7, 0.00,60.00,Monday
4973,-0.9165917255272567
4826,1524122.6418392265
4827,2.460751602484379e-8
2,12, 1,12, 0, 8, 0.00,60.00,Monday
4973,-1.3793353236387694
4826,0.0
4827,0.0
2,12, 1,12, 0, 9, 0.00,60.00,Monday
4973,-1.647129366406953
4826,0.0
4827,0.0
2,12, 1,12, 0,10, 0.00,60.00,Monday
4973,-1.6573389157467702
4826,0.0
4827,0.0
2,12, 1,12, 0,11, 0.00,60.00,Monday
4973,-1.6630241302904257
4826,0.0
4827,0.0
2,12, 1,12, 0,12, 0.00,60.00,Monday
4973,-1.6727359891320837
4826,0.0
4827,0.0
2,12, 1,12, 0,13, 0.00,60.00,Monday
4973,-1.6789933382691147
4826,0.0
4827,0.0
2,12, 1,12, 0,14, 0.00,60.00,Monday
4973,-1.6877876606374514
4826,0.0
4827,0.0
2,12, 1,12, 0,15, 0.00,60.00,Monday
4973,-1.6892070719550636
4826,0.0
4827,0.0
2,12, 1,12, 0,16, 0.00,60.00,Monday
4973,-1.683290122527053
4826,0.0
4827,0.0
2,12, 1,12, 0,17, 0.00,60.00,Monday
4973,-1.673813702721876
4826,0.0
4827,0.0
2,12, 1,12, 0,18, 0.00,60.00,Monday
4973,-1.6651957708727437
4826,0.0
4827,0.0
2,12, 1,12, 0,19, 0.00,60.00,Monday
4973,-1.6643982710501777
4826,0.0
4827,0.0
2,12, 1,12, 0,20, 0.00,60.00,Monday
4973,-1.6581768284073309
4826,0.0
4827,0.0
2,12, 1,12, 0,21, 0.00,60.00,Monday
4973,-1.6613196217796978
4826,0.0
4827,0.0
2,12, 1,12, 0,22, 0.00,60.00,Monday
4973,-1.1662785280614148
4826,2324534.269924525
4827,2.3432562556990889e-8
2,12, 1,12, 0,23, 0.00,60.00,Monday
4973,-0.9993054410654403
4826,1678835.0668399838
4827,5.392166713136248e-8
2,12, 1,12, 0,24, 0.00,60.00,Monday
4973,-0.9874031913758719
4826,1558267.4524720258
4827,3.821583050012123e-8
2,13, 1,13, 0, 1, 0.00,60.00,Tuesday
4973,-0.980244806811951
4826,1730771.7457552748
4827,5.358676554629063
2,13, 1,13, 0, 2, 0.00,60.00,Tuesday
4973,-0.9742718842196737
4826,1718526.2580439226
4827,5.028937266615685e-8
2,13, 1,13, 0, 3, 0.00,60.00,Tuesday
4973,-0.9690572465145849
4826,1709138.2812252776
4827,3.796003511524759e-8
2,13, 1,13, 0, 4, 0.00,60.00,Tuesday
4973,-0.9644816182393154
4826,1701052.5427523349
4827,4.6554760047001767e-8
2,13, 1,13, 0, 5, 0.00,60.00,Tuesday
4973,-0.9602290009831807
4826,1698535.0786160483
4827,3.3304559110547419e-8
2,13, 1,13, 0, 6, 0.00,60.00,Tuesday
4973,-0.9561904586651506
4826,1700687.4235811514
4827,4.425260158313904e-8
2,13, 1,13, 0, 7, 0.00,60.00,Tuesday
4973,-0.953366358413658
4826,1700896.1776105292
4827,9.822542779147625e-8
2,13, 1,13, 0, 8, 0.00,60.00,Tuesday