Program Version,EnergyPlus, Version 8.7.0-78a111df4a, YMD=2019.05.28 05:48
1,5,Environment Title[],Latitude[deg],Longitude[deg],Time Zone[],Elevation[m]
2,6,Day of Simulation[],Month[],Day of Month[],DST Indicator[1=yes 0=no],Hour[],StartMinute[],EndMinute[],DayType
3,3,Cumulative Day of Simulation[],Month[],Day of Month[],DST Indicator[1=yes 0=no],DayType  ! When Daily Report Variables Requested
4,2,Cumulative Days of Simulation[],Month[]  ! When Monthly Report Variables Requested
5,1,Cumulative Days of Simulation[] ! When Run Period Report Variables Requested
4826,1,BEDROOM2.2,Zone Ideal Loads Zone Total Heating Energy [J] !Hourly
4827,1,BEDROOM2.2,Zone Ideal Loads Zone Total Cooling Energy [J] !Hourly
4973,1,BEDROOM2.2,Zone Thermal Comfort Fanger Model PMV [] !Hourly
End of Data Dictionary
1,RUNPERIOD,  29.58, 106.47,   8.00, 259.10
2,1, 1, 1, 0, 1, 0.00,60.00,Thursday
4973,-1.0986215958325827
4826,2484632.02252482
4827,9.339771622762783e-8
2,1, 1, 1, 0, 2, 0.00,60.00,Thursday
4973,-1.0906884104998467
4826,2491681.630573611
4827,5.412915806050478
2,1, 1, 1, 0, 3, 0.00,60.00,Thursday
4973,-1.0825390720263708
4826,2425839.835459481
4827,3.949480742448941e-8
2,1, 1, 1, 0, 4, 0.00,60.00,Thursday
4973,-1.0755641616455072
4826,2391165.3113958325
4827,4.1745806811377409e-8
2,1, 1, 1, 0, 5, 0.00,60.00,Thursday
4973,-1.0718342354258788
4826,2406086.898440836
4827,1.1306156011414714e-7
2,1, 1, 1, 0, 6, 0.00,60.00,Thursday
4973,-1.0711904071817343
4826,2426552.5902210345
4827,5.842366590513848e-8
2,1, 1, 1, 0, 7, 0.00,60.00,Thursday
4973,-1.0727040822025194
4826,2442385.433818771
4827,4.901039574178867e-8
2,1, 1, 1, 0, 8, 0.00,60.00,Thursday
4973,-1.7041087472140367
4826,0.0
4827,0.0
2,1, 1, 1, 0, 9, 0.00,60.00,Thursday
4973,-2.1030161475733637
4826,0.0
4827,0.0
2,1, 1, 1, 0,10, 0.00,60.00,Thursday
4973,-2.1408577963542476
4826,0.0
4827,0.0
2,1, 1, 1, 0,11, 0.00,60.00,Thursday
4973,-2.147765284628936
4826,0.0
4827,0.0
2,1, 1, 1, 0,12, 0.00,60.00,Thursday
4973,-2.143522249824973
4826,0.0
4827,0.0
2,1, 1, 1, 0,13, 0.00,60.00,Thursday
4973,-2.126425612243427
4826,0.0
4827,0.0
2,1, 1, 1, 0,14, 0.00,60.00,Thursday
4973,-2.091604496286744
4826,0.0
4827,0.0
2,1, 1, 1, 0,15, 0.00,60.00,Thursday
4973,-2.0470681506746217
4826,0.0
4827,0.0
2,1, 1, 1, 0,16, 0.00,60.00,Thursday
4973,-1.9890650218098874
4826,0.0
4827,0.0
2,1, 1, 1, 0,17, 0.00,60.00,Thursday
4973,-1.9218417071849197
4826,0.0
4827,0.0
2,1, 1, 1, 0,18, 0.00,60.00,Thursday
4973,-1.8624358610517636
4826,0.0
4827,0.0
2,1, 1, 1, 0,19, 0.00,60.00,Thursday
4973,-1.8142819291870667
4826,0.0
4827,0.0
2,1, 1, 1, 0,20, 0.00,60.00,Thursday
4973,-1.785844458488822
4826,0.0
4827,0.0
2,1, 1, 1, 0,21, 0.00,60.00,Thursday
4973,-1.8264318477745812
4826,0.0
4827,0.0
2,1, 1, 1, 0,22, 0.00,60.00,Thursday
4973,-1.2965921601143944
4826,3198912.460710553
4827,6.889422365929932e-8
2,1, 1, 1, 0,23, 0.00,60.00,Thursday
4973,-1.109359321486158
4826,2374688.348033242
4827,7.551079761469737e-8
2,1, 1, 1, 0,24, 0.00,60.00,Thursday
4973,-1.1040260105771307
4826,2267760.2625665909
4827,4.113189788768068e-8
2,2, 1, 2, 0, 1, 0.00,60.00,Friday
4973,-1.1009572029324067
4826,2456596.9220841128
4827,6.770733307348564e-8
2,2, 1, 2, 0, 2, 0.00,60.00,Friday
4973,-1.0991610441044169
4826,2452393.726382401
4827,7.320863915083464e-8
2,2, 1, 2, 0, 3, 0.00,60.00,Friday
4973,-1.097458587214301
4826,2452443.6868226148
4827,8.1956841313513e-8
2,2, 1, 2, 0, 4, 0.00,60.00,Friday
4973,-1.0935112753516614
4826,2444256.0692332966
4827,6.272102837101557e-8
2,2, 1, 2, 0, 5, 0.00,60.00,Friday
4973,-1.0888916808526137
4826,2429138.728564038
4827,3.724380803760141e-8
2,2, 1, 2, 0, 6, 0.00,60.00,Friday
4973,-1.0843181530126072
4826,2417967.596672536
4827,7.254357115016319e-8
2,2, 1, 2, 0, 7, 0.00,60.00,Friday
4973,-1.0798708905896022
4826,2402737.383418859
4827,7.643166100024246e-8
2,2, 1, 2, 0, 8, 0.00,60.00,Friday
4973,-1.6714047843559217
4826,0.0
4827,0.0
2,2, 1, 2, 0, 9, 0.00,60.00,Friday
4973,-2.0236751297433006
4826,0.0
4827,0.0
2,2, 1, 2, 0,10, 0.00,60.00,Friday
4973,-2.004954482000492
4826,0.0
4827,0.0
2,2, 1, 2, 0,11, 0.00,60.00,Friday
4973,-1.987946793370841
4826,0.0
4827,0.0
2,2, 1, 2, 0,12, 0.00,60.00,Friday
4973,-1.9754763376240443
4826,0.0
4827,0.0
2,2, 1, 2, 0,13, 0.00,60.00,Friday
4973,-1.961866979524937
4826,0.0
4827,0.0
2,2, 1, 2, 0,14, 0.00,60.00,Friday
4973,-1.9478543602881529
4826,0.0
4827,0.0
2,2, 1, 2, 0,15, 0.00,60.00,Friday
4973,-1.9219982828442713
4826,0.0
4827,0.0
2,2, 1, 2, 0,16, 0.00,60.00,Friday
4973,-1.8881843897462636
4826,0.0
4827,0.0
2,2, 1, 2, 0,17, 0.00,60.00,Friday
4973,-1.867764176726419
4826,0.0
4827,0.0
2,2, 1, 2, 0,18, 0.00,60.00,Friday
4973,-1.8902408860369662
4826,0.0
4827,0.0
2,2, 1, 2, 0,19, 0.00,60.00,Friday
4973,-1.932713582644181
4826,0.0
4827,0.0
2,2, 1, 2, 0,20, 0.00,60.00,Friday
4973,-1.9593308839239408
4826,0.0
4827,0.0
2,2, 1, 2, 0,21, 0.00,60.00,Friday
4973,-1.9856081464322744
4826,0.0
4827,0.0
2,2, 1, 2, 0,22, 0.00,60.00,Friday
4973,-1.344828085599926
4826,3408873.5592977639
4827,1.0802409633470234e-7
2,2, 1, 2, 0,23, 0.00,60.00,Friday
4973,-1.1169845935917345
4826,2406945.351562606
4827,1.1254996934439987e-8
2,2, 1, 2, 0,24, 0.00,60.00,Friday
4973,-1.0989852809080545
4826,2285921.8145311826
4827,0.0
2,3, 1, 3, 0, 1, 0.00,60.00,Saturday
4973,-1.0912737499221026
4826,2487492.5274121875
4827,6.440586730604991e-8
2,3, 1, 3, 0, 2, 0.00,60.00,Saturday
4973,-1.0882548343650154
4826,2517500.57202252
4827,9.894165486912243e-8
2,3, 1, 3, 0, 3, 0.00,60.00,Saturday
4973,-1.0899593848093164
4826,2527344.3284557245
4827,8.164988685166463e-8
2,3, 1, 3, 0, 4, 0.00,60.00,Saturday
4973,-1.0912767943245228
4826,2522121.0657795306
4827,7.346443453570828e-8
2,3, 1, 3, 0, 5, 0.00,60.00,Saturday
4973,-1.0908714685326595
4826,2505642.391751136
4827,4.62478055851534e-8
2,3, 1, 3, 0, 6, 0.00,60.00,Saturday
4973,-1.0890088357220243
4826,2475130.894008829
4827,1.4140368875814603e-7
2,3, 1, 3, 0, 7, 0.00,60.00,Saturday
4973,-1.0851974391000728
4826,2425814.8536121447
4827,6.722302714479156e-8
2,3, 1, 3, 0, 8, 0.00,60.00,Saturday
4973,-1.07951743995206
4826,2372322.0422752785
4827,4.7090225052670578e-8
2,3, 1, 3, 0, 9, 0.00,60.00,Saturday
4973,-1.0746426482614298
4826,2372052.368508812
4827,6.998561730142683e-8
2,3, 1, 3, 0,10, 0.00,60.00,Saturday
4973,-1.069408131796668
4826,2316767.503670811
4827,7.090648068697192e-8
2,3, 1, 3, 0,11, 0.00,60.00,Saturday
4973,-1.065067616378573
4826,2322241.344446766
4827,6.384652806445956e-8
2,3, 1, 3, 0,12, 0.00,60.00,Saturday
4973,-1.0616330803994565
4826,2276490.469723547
4827,6.548361852765083e-8
2,3, 1, 3, 0,13, 0.00,60.00,Saturday
4973,-1.0575663027797247
4826,2234610.945491731
4827,2.9262992029543967e-8
2,3, 1, 3, 0,14, 0.00,60.00,Saturday
4973,-1.0533362328992995
4826,2196415.2181113169
4827,4.461071512196213e-8
2,3, 1, 3, 0,15, 0.00,60.00,Saturday
4973,-1.0484473153354206
4826,2127335.489422829
4827,3.836930773104541e-8
2,3, 1, 3, 0,16, 0.00,60.00,Saturday
4973,-1.041875519795162
4826,2107623.6014017185
4827,3.356035449542105e-8
2,3, 1, 3, 0,17, 0.00,60.00,Saturday
4973,-1.0367737662488664
4826,2135521.2650319489
4827,1.3608314475277439e-8
2,3, 1, 3, 0,18, 0.00,60.00,Saturday
4973,-1.0322870269998974
4826,2117496.7724134346
4827,1.7394086171407253e-9
2,3, 1, 3, 0,19, 0.00,60.00,Saturday
4973,-1.0257214131990569
4826,2083538.836054
4827,6.282334652496502e-8
2,3, 1, 3, 0,20, 0.00,60.00,Saturday
4973,-1.0184676173710406
4826,1941504.8802024925
4827,1.4529177860822529e-8
2,3, 1, 3, 0,21, 0.00,60.00,Saturday
4973,-1.0104997723820973
4826,1870288.5108890427
4827,4.389448804431595e-8
2,3, 1, 3, 0,22, 0.00,60.00,Saturday
4973,-1.002426052275032
4826,1842775.569190734
4827,4.149001142650377e-8
2,3, 1, 3, 0,23, 0.00,60.00,Saturday
4973,-0.9960702207962932
4826,1830262.2414864223
4827,8.185452315956354e-9
2,3, 1, 3, 0,24, 0.00,60.00,Saturday
4973,-0.9899699805648248
4826,1763643.4207359695
4827,6.701839083689265e-8
2,4, 1, 4, 0, 1, 0.00,60.00,Sunday
4973,-0.9863403363397906
4826,1899997.9685330576
4827,6.499954437620607
2,4, 1, 4, 0, 2, 0.00,60.00,Sunday
4973,-0.9820411954562429
4826,1900317.7277116983
4827,2.384012987022288e-8
2,4, 1, 4, 0, 3, 0.00,60.00,Sunday
4973,-0.9788746245511188
4826,1881557.7461608949
4827,1.2892087397631258e-8
2,4, 1, 4, 0, 4, 0.00,60.00,Sunday
4973,-0.975694358588414
4826,1868082.3403995278
4827,4.0824943425832319e-8
2,4, 1, 4, 0, 5, 0.00,60.00,Sunday
4973,-0.9721420558691661
4826,1858496.8036115822
4827,5.832134775118902e-8
2,4, 1, 4, 0, 6, 0.00,60.00,Sunday
4973,-0.9684559984784165
4826,1853991.0041320297
4827,5.54564394406043e-8
2,4, 1, 4, 0, 7, 0.00,60.00,Sunday
4973,-0.9652195214539607
4826,1848433.6769977818
4827,1.0088569979416207e-7
2,4, 1, 4, 0, 8, 0.00,60.00,Sunday
4973,-0.9625028741672965
4826,1836827.550405444
4827,2.219110228907084e-8
2,4, 1, 4, 0, 9, 0.00,60.00,Sunday
4973,-0.9618680941134752
4826,1875400.1874375188
4827,5.0238213589182126e-8
2,4, 1, 4, 0,10, 0.00,60.00,Sunday
4973,-0.9618766699894876
4826,1848113.2100854486
4827,2.603997018013615e-8
2,4, 1, 4, 0,11, 0.00,60.00,Sunday
4973,-0.9624130397089155
4826,1878630.4761819794
4827,3.632294465205632e-8
2,4, 1, 4, 0,12, 0.00,60.00,Sunday
4973,-0.9651109776401947
4826,1846924.22697473
4827,3.601599019020796e-8
2,4, 1, 4, 0,13, 0.00,60.00,Sunday
4973,-0.966210357769891
4826,1805504.1931974653
4827,2.1947244022157976e-8
2,4, 1, 4, 0,14, 0.00,60.00,Sunday
4973,-0.96662427456427
4826,1751361.791069725
4827,1.2278178473934532e-9
2,4, 1, 4, 0,15, 0.00,60.00,Sunday
4973,-0.9638333345801726
4826,1644824.511267675
4827,2.332853910047561e-8
2,4, 1, 4, 0,16, 0.00,60.00,Sunday
4973,-0.9561202075779557
4826,1592059.6502056074
4827,4.660591912397649e-8
2,4, 1, 4, 0,17, 0.00,60.00,Sunday
4973,-0.9480068188211748
4826,1625680.0934439244
4827,3.299760464869905e-8
2,4, 1, 4, 0,18, 0.00,60.00,Sunday
4973,-0.9436222660172766
4826,1636558.2273684189
4827,1.524540493846871e-8
2,4, 1, 4, 0,19, 0.00,60.00,Sunday
4973,-0.9397863578702755
4826,1649213.519984153
4827,1.6933654478634709e-8
2,4, 1, 4, 0,20, 0.00,60.00,Sunday
4973,-0.9359310526893283
4826,1552570.5256527155
4827,4.2155079427175227e-8
2,4, 1, 4, 0,21, 0.00,60.00,Sunday
4973,-0.9338079764561522
4826,1519694.9100677174
4827,1.9235812942497433e-8
2,4, 1, 4, 0,22, 0.00,60.00,Sunday
4973,-0.931793265093239
4826,1516089.4523654802
4827,4.880575943388976e-8
2,4, 1, 4, 0,23, 0.00,60.00,Sunday
4973,-0.9296099968060543
4826,1511003.5650170507
4827,6.292566467891447e-8
2,4, 1, 4, 0,24, 0.00,60.00,Sunday
4973,-0.9273275610322744
4826,1444950.9040074647
4827,4.220623850414995e-8
2,5, 1, 5, 0, 1, 0.00,60.00,Monday
4973,-0.927413002287409
4826,1578837.6321813055
4827,0.5821000220294081
2,5, 1, 5, 0, 2, 0.00,60.00,Monday
4973,-0.926431637432286
4826,1573441.2042146496
4827,1.816147232602816e-8
2,5, 1, 5, 0, 3, 0.00,60.00,Monday
4973,-0.9265313714576079
4826,1588129.392689446
4827,4.9112713895738128e-8
2,5, 1, 5, 0, 4, 0.00,60.00,Monday
4973,-0.9284413481006217
4826,1606002.663688526
4827,1.9031176634598525e-8
2,5, 1, 5, 0, 5, 0.00,60.00,Monday
4973,-0.931518213987787
4826,1617874.5804887273
4827,3.00815372611396e-8
2,5, 1, 5, 0, 6, 0.00,60.00,Monday
4973,-0.9343214313148227
4826,1631343.3357097773
4827,3.668105819087941e-8
2,5, 1, 5, 0, 7, 0.00,60.00,Monday
4973,-0.9369346604983361
4826,1645515.7319390407
4827,2.036131263594143e-8
2,5, 1, 5, 0, 8, 0.00,60.00,Monday
4973,-1.4523114906447277
4826,0.0
4827,0.0
2,5, 1, 5, 0, 9, 0.00,60.00,Monday
4973,-1.7380553181233356
4826,0.0
4827,0.0
2,5, 1, 5, 0,10, 0.00,60.00,Monday
4973,-1.7600641367005415
4826,0.0
4827,0.0
2,5, 1, 5, 0,11, 0.00,60.00,Monday
4973,-1.772337286048929
4826,0.0
4827,0.0
2,5, 1, 5, 0,12, 0.00,60.00,Monday
4973,-1.7820762619431492
4826,0.0
4827,0.0
2,5, 1, 5, 0,13, 0.00,60.00,Monday
4973,-1.7871426967818467
4826,0.0
4827,0.0
2,5, 1, 5, 0,14, 0.00,60.00,Monday
4973,-1.784878667209593
4826,0.0
4827,0.0
2,5, 1, 5, 0,15, 0.00,60.00,Monday
4973,-1.7804858909708239
4826,0.0
4827,0.0
2,5, 1, 5, 0,16, 0.00,60.00,Monday
4973,-1.7743640682168969
4826,0.0
4827,0.0
2,5, 1, 5, 0,17, 0.00,60.00,Monday
4973,-1.772080670200516
4826,0.0
4827,0.0
2,5, 1, 5, 0,18, 0.00,60.00,Monday
4973,-1.771332389491116
4826,0.0
4827,0.0
2,5, 1, 5, 0,19, 0.00,60.00,Monday
4973,-1.7733326860432542
4826,0.0
4827,0.0
2,5, 1, 5, 0,20, 0.00,60.00,Monday
4973,-1.7660609433220292
4826,0.0
4827,0.0
2,5, 1, 5, 0,21, 0.00,60.00,Monday
4973,-1.7803703595192356
4826,0.0
4827,0.0
2,5, 1, 5, 0,22, 0.00,60.00,Monday
4973,-1.2335742732349378
4826,2773587.5704099026
4827,7.889411790529266e-8
2,5, 1, 5, 0,23, 0.00,60.00,Monday
4973,-1.0423506824716574
4826,1931418.8739349978
4827,5.975380190648139e-8
2,5, 1, 5, 0,24, 0.00,60.00,Monday
4973,-1.0302750449913965
4826,1819785.0931499745
4827,6.190248313941993e-8
2,6, 1, 6, 0, 1, 0.00,60.00,Tuesday
4973,-1.0212330406967417
4826,2006124.0223708517
4827,5.864565969331724
2,6, 1, 6, 0, 2, 0.00,60.00,Tuesday
4973,-1.0137247976249433
4826,2004031.9824545843
4827,1.872422217275016e-8
2,6, 1, 6, 0, 3, 0.00,60.00,Tuesday
4973,-1.00579263039848
4826,1960123.7009332625
4827,3.652758095995523e-8
2,6, 1, 6, 0, 4, 0.00,60.00,Tuesday
4973,-0.9983843299866428
4826,1930367.091879428
4827,1.248281478183344e-8
2,6, 1, 6, 0, 5, 0.00,60.00,Tuesday
4973,-0.991507970772192
4826,1917070.753621901
4827,1.1357315088389442e-7
2,6, 1, 6, 0, 6, 0.00,60.00,Tuesday
4973,-0.9850620252211855
4826,1899902.4083045137
4827,4.675939635490067e-8
2,6, 1, 6, 0, 7, 0.00,60.00,Tuesday
4973,-0.97970667319277
4826,1884944.5869966706
4827,1.0436451702844352e-8
2,6, 1, 6, 0, 8, 0.00,60.00,Tuesday
4973,-1.4894797642131022
4826,0.0
4827,0.0
2,6, 1, 6, 0, 9, 0.00,60.00,Tuesday
4973,-1.7997013188076859
4826,0.0
4827,0.0
2,6, 1, 6, 0,10, 0.00,60.00,Tuesday
4973,-1.7810831724956147
4826,0.0
4827,0.0
2,6, 1, 6, 0,11, 0.00,60.00,Tuesday
4973,-1.7725213576281012
4826,0.0
4827,0.0
2,6, 1, 6, 0,12, 0.00,60.00,Tuesday
4973,-1.759420145569847
4826,0.0
4827,0.0
2,6, 1, 6, 0,13, 0.00,60.00,Tuesday
4973,-1.7269425684272469
4826,0.0
4827,0.0
2,6, 1, 6, 0,14, 0.00,60.00,Tuesday
4973,-1.639719294467234
4826,0.0
4827,0.0
2,6, 1, 6, 0,15, 0.00,60.00,Tuesday
4973,-1.61880720787503
4826,0.0
4827,0.0
2,6, 1, 6, 0,16, 0.00,60.00,Tuesday
4973,-1.5792126008182586
4826,0.0
4827,0.0
2,6, 1, 6, 0,17, 0.00,60.00,Tuesday
4973,-1.545552340092284
4826,0.0
4827,0.0
2,6, 1, 6, 0,18, 0.00,60.00,Tuesday
4973,-1.556497243150506
4826,0.0
4827,0.0
2,6, 1, 6, 0,19, 0.00,60.00,Tuesday
4973,-1.5922785736904555
4826,0.0
4827,0.0
2,6, 1, 6, 0,20, 0.00,60.00,Tuesday
4973,-1.613858054896203
4826,0.0
4827,0.0
2,6, 1, 6, 0,21, 0.00,60.00,Tuesday
4973,-1.6452519007213243
4826,0.0
4827,0.0
2,6, 1, 6, 0,22, 0.00,60.00,Tuesday
4973,-1.1640382391439386
4826,2476289.498218619
4827,5.9054627854493449e-8
2,6, 1, 6, 0,23, 0.00,60.00,Tuesday
4973,-0.9958197483937168
4826,1774681.9382130493
4827,0.0
2,6, 1, 6, 0,24, 0.00,60.00,Tuesday
4973,-0.9853714579052014
4826,1676433.4078141957
4827,2.5426061256439426e-8
2,7, 1, 7, 0, 1, 0.00,60.00,Wednesday
4973,-0.9807308293889032
4826,1873522.8109005048
4827,7.429662218783051e-8
2,7, 1, 7, 0, 2, 0.00,60.00,Wednesday
4973,-0.9779222005144452
4826,1889673.1153340548
4827,5.3717030823463577e-8
2,7, 1, 7, 0, 3, 0.00,60.00,Wednesday
4973,-0.9778869895464106
4826,1920602.2813818679
4827,6.446043698815629e-9
2,7, 1, 7, 0, 4, 0.00,60.00,Wednesday
4973,-0.9796160570499204
4826,1968048.0167419138
4827,5.1466031436575579e-8
2,7, 1, 7, 0, 5, 0.00,60.00,Wednesday
4973,-0.983504103717938
4826,2031836.0761908163
4827,6.48697096039541e-8
2,7, 1, 7, 0, 6, 0.00,60.00,Wednesday
4973,-0.9890829247172767
4826,2093140.0237316313
4827,7.806875146343373e-8
2,7, 1, 7, 0, 7, 0.00,60.00,Wednesday
4973,-0.9946847562399355
4826,2142577.3458785077
4827,1.759872247930616e-8
2,7, 1, 7, 0, 8, 0.00,60.00,Wednesday
4973,-1.638301562436021
4826,0.0
4827,0.0
2,7, 1, 7, 0, 9, 0.00,60.00,Wednesday
4973,-1.9847754081795537
4826,0.0
4827,0.0
2,7, 1, 7, 0,10, 0.00,60.00,Wednesday
4973,-1.9983018508463076
4826,0.0
4827,0.0
2,7, 1, 7, 0,11, 0.00,60.00,Wednesday
4973,-1.9860880720359977
4826,0.0
4827,0.0
2,7, 1, 7, 0,12, 0.00,60.00,Wednesday
4973,-1.9723869397960013
4826,0.0
4827,0.0
2,7, 1, 7, 0,13, 0.00,60.00,Wednesday
4973,-1.8963598748354343
4826,0.0
4827,0.0
2,7, 1, 7, 0,14, 0.00,60.00,Wednesday
4973,-1.8029525594047318
4826,0.0
4827,0.0
2,7, 1, 7, 0,15, 0.00,60.00,Wednesday
4973,-1.7216496950767442
4826,0.0
4827,0.0
2,7, 1, 7, 0,16, 0.00,60.00,Wednesday
4973,-1.5886857343552588
4826,0.0
4827,0.0
2,7, 1, 7, 0,17, 0.00,60.00,Wednesday
4973,-1.5177851999031329
4826,0.0
4827,0.0
2,7, 1, 7, 0,18, 0.00,60.00,Wednesday
4973,-1.5401771727134597
4826,0.0
4827,0.0
2,7, 1, 7, 0,19, 0.00,60.00,Wednesday
4973,-1.5732143812434978
4826,0.0
4827,0.0
2,7, 1, 7, 0,20, 0.00,60.00,Wednesday
4973,-1.5937559524017016
4826,0.0
4827,0.0
2,7, 1, 7, 0,21, 0.00,60.00,Wednesday
4973,-1.6179831195695139
4826,0.0
4827,0.0
2,7, 1, 7, 0,22, 0.00,60.00,Wednesday
4973,-1.16718153635109
4826,2380444.395962379
4827,3.197783371433616e-8
2,7, 1, 7, 0,23, 0.00,60.00,Wednesday
4973,-1.0114780976729257
4826,1684745.9702250115
4827,3.893205757776741e-8
2,7, 1, 7, 0,24, 0.00,60.00,Wednesday
4973,-1.0008320326908287
4826,1594448.316370328
4827,4.7833736971369947e-8
2,8, 1, 8, 0, 1, 0.00,60.00,Thursday
4973,-0.9953411756566464
4826,1795800.4938750393
4827,8.280413307407539e-8
2,8, 1, 8, 0, 2, 0.00,60.00,Thursday
4973,-0.9904123693336355
4826,1803590.7394205612
4827,9.674181455920916e-8
2,8, 1, 8, 0, 3, 0.00,60.00,Thursday
4973,-0.9861150537765137
4826,1825236.210872629
4827,1.724060894048307e-8
2,8, 1, 8, 0, 4, 0.00,60.00,Thursday
4973,-0.9825522197651475
4826,1844492.8098392506
4827,5.136371328262612e-8
2,8, 1, 8, 0, 5, 0.00,60.00,Thursday
4973,-0.979536218470045
4826,1853442.824265545
4827,9.525820132694207e-8
2,8, 1, 8, 0, 6, 0.00,60.00,Thursday
4973,-0.9764385873723614
4826,1861428.7983260942
4827,6.773461791453883e-8
2,8, 1, 8, 0, 7, 0.00,60.00,Thursday
4973,-0.9742666978065493
4826,1860022.979384146
4827,6.701839083689265e-8
2,8, 1, 8, 0, 8, 0.00,60.00,Thursday
4973,-1.4906992097682
4826,0.0
4827,0.0
2,8, 1, 8, 0, 9, 0.00,60.00,Thursday
4973,-1.8010176479666716
4826,0.0
4827,0.0
2,8, 1, 8, 0,10, 0.00,60.00,Thursday
4973,-1.798979735909111
4826,0.0
4827,0.0
2,8, 1, 8, 0,11, 0.00,60.00,Thursday
4973,-1.7833113881794787
4826,0.0
4827,0.0
2,8, 1, 8, 0,12, 0.00,60.00,Thursday
4973,-1.764644757264501
4826,0.0
4827,0.0
2,8, 1, 8, 0,13, 0.00,60.00,Thursday
4973,-1.73010649591511
4826,0.0
4827,0.0
2,8, 1, 8, 0,14, 0.00,60.00,Thursday
4973,-1.6979222979898828
4826,0.0
4827,0.0
2,8, 1, 8, 0,15, 0.00,60.00,Thursday
4973,-1.672414171247089
4826,0.0
4827,0.0
2,8, 1, 8, 0,16, 0.00,60.00,Thursday
4973,-1.6533710186115023
4826,0.0
4827,0.0
2,8, 1, 8, 0,17, 0.00,60.00,Thursday
4973,-1.6397320830753893
4826,0.0
4827,0.0
2,8, 1, 8, 0,18, 0.00,60.00,Thursday
4973,-1.6451543523705024
4826,0.0
4827,0.0
2,8, 1, 8, 0,19, 0.00,60.00,Thursday
4973,-1.6639398357673874
4826,0.0
4827,0.0
2,8, 1, 8, 0,20, 0.00,60.00,Thursday
4973,-1.6783414166654707
4826,0.0
4827,0.0
2,8, 1, 8, 0,21, 0.00,60.00,Thursday
4973,-1.6916001751418198
4826,0.0
4827,0.0
2,8, 1, 8, 0,22, 0.00,60.00,Thursday
4973,-1.1859346074156934
4826,2474043.0266960996
4827,7.910387012088904e-8
2,8, 1, 8, 0,23, 0.00,60.00,Thursday
4973,-1.0096170110730938
4826,1723026.6249664133
4827,1.5347723092418165e-10
2,8, 1, 8, 0,24, 0.00,60.00,Thursday
4973,-0.9943048664597574
4826,1631003.2524273857
4827,3.049080987693742e-8
2,9, 1, 9, 0, 1, 0.00,60.00,Friday
4973,-0.9875142637878225
4826,1846138.9805912493
4827,6.824450338172028e-8
2,9, 1, 9, 0, 2, 0.00,60.00,Friday
4973,-0.9844359625198361
4826,1872040.5504935892
4827,1.0129497240995989e-8
2,9, 1, 9, 0, 3, 0.00,60.00,Friday
4973,-0.9821323592709568
4826,1877971.8068537072
4827,2.9774582799291239e-8
2,9, 1, 9, 0, 4, 0.00,60.00,Friday
4973,-0.9789102783477593
4826,1866550.2039131567
4827,7.172502591856755e-8
2,9, 1, 9, 0, 5, 0.00,60.00,Friday
4973,-0.9749326737744067
4826,1853777.776249759
4827,5.4637894209008667e-8
2,9, 1, 9, 0, 6, 0.00,60.00,Friday
4973,-0.9709965307886422
4826,1844176.7917118259
4827,2.5630697564338335e-8
2,9, 1, 9, 0, 7, 0.00,60.00,Friday
4973,-0.9679939067198741
4826,1835036.638417291
4827,8.10359779279679e-8
2,9, 1, 9, 0, 8, 0.00,60.00,Friday
4973,-1.4753730437064059
4826,0.0
4827,0.0
2,9, 1, 9, 0, 9, 0.00,60.00,Friday
4973,-1.7897297236588426
4826,0.0
4827,0.0
2,9, 1, 9, 0,10, 0.00,60.00,Friday
4973,-1.8051085216969094
4826,0.0
4827,0.0
2,9, 1, 9, 0,11, 0.00,60.00,Friday
4973,-1.8088072204772692
4826,0.0
4827,0.0
2,9, 1, 9, 0,12, 0.00,60.00,Friday
4973,-1.8078054535180535
4826,0.0
4827,0.0
2,9, 1, 9, 0,13, 0.00,60.00,Friday
4973,-1.8063091866654897
4826,0.0
4827,0.0
2,9, 1, 9, 0,14, 0.00,60.00,Friday
4973,-1.7997102908823966
4826,0.0
4827,0.0
2,9, 1, 9, 0,15, 0.00,60.00,Friday
4973,-1.797027511949247
4826,0.0
4827,0.0
2,9, 1, 9, 0,16, 0.00,60.00,Friday
4973,-1.794077567966478
4826,0.0
4827,0.0
2,9, 1, 9, 0,17, 0.00,60.00,Friday
4973,-1.7977411204397423
4826,0.0
4827,0.0
2,9, 1, 9, 0,18, 0.00,60.00,Friday
4973,-1.8074193157519488
4826,0.0
4827,0.0
2,9, 1, 9, 0,19, 0.00,60.00,Friday
4973,-1.8144479440499378
4826,0.0
4827,0.0
2,9, 1, 9, 0,20, 0.00,60.00,Friday
4973,-1.8057103441277583
4826,0.0
4827,0.0
2,9, 1, 9, 0,21, 0.00,60.00,Friday
4973,-1.8048654469499446
4826,0.0
4827,0.0
2,9, 1, 9, 0,22, 0.00,60.00,Friday
4973,-1.2393915124079416
4826,2810965.226470332
4827,8.659014838485746e-8
2,9, 1, 9, 0,23, 0.00,60.00,Friday
4973,-1.0470061651960772
4826,1946691.4128443599
4827,2.353317540837452e-9
2,9, 1, 9, 0,24, 0.00,60.00,Friday
4973,-1.0331286590378799
4826,1806672.3142937679
4827,7.545963853772264e-8
2,10, 1,10, 0, 1, 0.00,60.00,Saturday
4973,-1.0251325446452582
4826,1963618.3384013358
4827,6.247546480153687e-8
2,10, 1,10, 0, 2, 0.00,60.00,Saturday
4973,-1.0190808463490444
4826,1939263.7708227114
4827,6.527898221975193e-8
2,10, 1,10, 0, 3, 0.00,60.00,Saturday
4973,-1.0133875118450427
4826,1903563.803439483
4827,4.604316927725449e-8
2,10, 1,10, 0, 4, 0.00,60.00,Saturday
4973,-1.0079763087498564
4826,1877714.7824522048
4827,9.014229362946935e-8
2,10, 1,10, 0, 5, 0.00,60.00,Saturday
4973,-1.002438376528522
4826,1862176.0539847662
4827,6.35395736026112e-8
2,10, 1,10, 0, 6, 0.00,60.00,Saturday
4973,-0.9973954646146874
4826,1854021.7398781
4827,4.768025974044576e-8
2,10, 1,10, 0, 7, 0.00,60.00,Saturday
4973,-0.9932421336098097
4826,1845318.7088814174
4827,6.226059667824302e-8
2,10, 1,10, 0, 8, 0.00,60.00,Saturday
4973,-0.9900364265850404
4826,1830361.0677208086
4827,4.67542804472032e-8
2,10, 1,10, 0, 9, 0.00,60.00,Saturday
4973,-0.9870204313772437
4826,1877668.943098416
4827,3.7755398807348686e-8
2,10, 1,10, 0,10, 0.00,60.00,Saturday
4973,-0.9811472177733766
4826,1829617.3152964863
4827,4.594085112330504e-8
2,10, 1,10, 0,11, 0.00,60.00,Saturday
4973,-0.9753089567255757
4826,1817410.2165531368
4827,9.500240594206844e-8
2,10, 1,10, 0,12, 0.00,60.00,Saturday
4973,-0.9702689096204602
4826,1738074.0841321517
4827,9.730456440593116e-8
2,10, 1,10, 0,13, 0.00,60.00,Saturday
4973,-0.9667384805673674
4826,1658043.4112458332
4827,2.7830537874251605e-8
2,10, 1,10, 0,14, 0.00,60.00,Saturday
4973,-0.9711324200335381
4826,1618853.1787082484
4827,3.3713831726345236e-8
2,10, 1,10, 0,15, 0.00,60.00,Saturday
4973,-0.9642032624661485
4826,1472413.4799729728
4827,6.384652806445956e-8
2,10, 1,10, 0,16, 0.00,60.00,Saturday
4973,-0.9484561503076551
4826,1378603.0160120126
4827,5.361471266951412e-8
2,10, 1,10, 0,17, 0.00,60.00,Saturday
4973,-0.9323060883114432
4826,1405582.6622576877
4827,1.432454155292362e-8
2,10, 1,10, 0,18, 0.00,60.00,Saturday
4973,-0.9226694802047478
4826,1422009.130669931
4827,2.276578925375361e-8
2,10, 1,10, 0,19, 0.00,60.00,Saturday
4973,-0.9202116396095845
4826,1457892.996883479
4827,1.1971224012086168e-8
2,10, 1,10, 0,20, 0.00,60.00,Saturday
4973,-0.9191706621513105
4826,1373020.0732194912
4827,5.3793769438925668e-8
2,10, 1,10, 0,21, 0.00,60.00,Saturday
4973,-0.9180601316171988
4826,1350438.222394445
4827,1.9031176634598525e-8
2,10, 1,10, 0,22, 0.00,60.00,Saturday
4973,-0.9130953077207751
4826,1336122.616351452
4827,4.062030711793341e-8
2,10, 1,10, 0,23, 0.00,60.00,Saturday
4973,-0.9062687835435863
4826,1335270.6561114025
4827,1.652438186283689e-8
2,10, 1,10, 0,24, 0.00,60.00,Saturday
4973,-0.8999944955734548
4826,1313476.9485085214
4827,4.3945647121290679e-8
2,11, 1,11, 0, 1, 0.00,60.00,Sunday
4973,-0.9008684859675026
4826,1514864.1377626849
4827,3.479840415820945e-8
2,11, 1,11, 0, 2, 0.00,60.00,Sunday
4973,-0.9053937270134536
4826,1580195.9195129087
4827,5.3512394515564668e-8
2,11, 1,11, 0, 3, 0.00,60.00,Sunday
4973,-0.912244980574271
4826,1614310.8644496389
4827,5.520064405573066e-8
2,11, 1,11, 0, 4, 0.00,60.00,Sunday
4973,-0.9159053129648641
4826,1626912.7003397237
4827,2.1026380636612886e-8
2,11, 1,11, 0, 5, 0.00,60.00,Sunday
4973,-0.9171810216259021
4826,1641219.6020518982
4827,8.0831341620069e-8
2,11, 1,11, 0, 6, 0.00,60.00,Sunday
4973,-0.9192642375242399
4826,1660504.2046883873
4827,4.588969204633031e-8
2,11, 1,11, 0, 7, 0.00,60.00,Sunday
4973,-0.9222743111914785
4826,1677403.4977919867
4827,8.630536285636481e-8
2,11, 1,11, 0, 8, 0.00,60.00,Sunday
4973,-0.9238672570245219
4826,1662062.0681153755
4827,2.178865088353632e-8
2,11, 1,11, 0, 9, 0.00,60.00,Sunday
4973,-0.9228462512918397
4826,1642717.1585577592
4827,2.036131263594143e-8
2,11, 1,11, 0,10, 0.00,60.00,Sunday
4973,-0.9178789548209628
4826,1565611.5944319813
4827,4.1796965888352136e-8
2,11, 1,11, 0,11, 0.00,60.00,Sunday
4973,-0.9113590654205767
4826,1566140.1375942163
4827,1.1817746781161987e-8
2,11, 1,11, 0,12, 0.00,60.00,Sunday
4973,-0.9061273042473438
4826,1527656.8418365964
4827,4.062030711793341e-8
2,11, 1,11, 0,13, 0.00,60.00,Sunday
4973,-0.9024494836584734
4826,1496706.780418491
4827,6.164668775454629e-8
2,11, 1,11, 0,14, 0.00,60.00,Sunday
4973,-0.8993708511403826
4826,1476709.8486464087
4827,4.880575943388976e-8
2,11, 1,11, 0,15, 0.00,60.00,Sunday
4973,-0.8964820099727555
4826,1388588.5852324402
4827,3.8266989577095958e-8
2,11, 1,11, 0,16, 0.00,60.00,Sunday
4973,-0.8930400220189219
4826,1359840.256840955
4827,5.20799403602723e-8
2,11, 1,11, 0,17, 0.00,60.00,Sunday
4973,-0.8913182568190925
4826,1399736.40797756
4827,4.1796965888352136e-8
2,11, 1,11, 0,18, 0.00,60.00,Sunday
4973,-0.8909989570572579
4826,1390274.4918619898
4827,1.3147882782504894e-8
2,11, 1,11, 0,19, 0.00,60.00,Sunday
4973,-0.8888021091665151
4826,1368404.0383600286
4827,3.8829739423817958e-8
2,11, 1,11, 0,20, 0.00,60.00,Sunday
4973,-0.88635759674524
4826,1228478.7412189763
4827,1.1766587704187259e-8
2,11, 1,11, 0,21, 0.00,60.00,Sunday
4973,-0.8838204736315882
4826,1172179.5835101009
4827,4.594085112330504e-8
2,11, 1,11, 0,22, 0.00,60.00,Sunday
4973,-0.8811055728634342
4826,1154577.032893789
4827,4.39968061982654e-9
2,11, 1,11, 0,23, 0.00,60.00,Sunday
4973,-0.8803341972852711
4826,1143146.6672282448
4827,2.5784174795262517e-8
2,11, 1,11, 0,24, 0.00,60.00,Sunday
4973,-0.8798877629730528
4826,1083020.169487817
4827,3.949480742448941e-8
2,12, 1,12, 0, 1, 0.00,60.00,Monday
4973,-0.8811719285569379
4826,1226746.2524495605
4827,4.0889907333101808e-8
2,12, 1,12, 0, 2, 0.00,60.00,Monday
4973,-0.8826279597199783
4826,1239241.8851797127
4827,3.616946742113214e-8
2,12, 1,12, 0, 3, 0.00,60.00,Monday
4973,-0.8846349262736843
4826,1271151.5175956875
4827,5.0596327128005217e-8
2,12, 1,12, 0, 4, 0.00,60.00,Monday
4973,-0.8862018868294286
4826,1300453.3869076339
4827,6.190248313941993e-9
2,12, 1,12, 0, 5, 0.00,60.00,Monday
4973,-0.8863073023266795
4826,1327735.3274672963
4827,2.9416469260468149e-8
2,12, 1,12, 0, 6, 0.00,60.00,Monday
4973,-0.8848713370329466
4826,1353047.3556618919
4827,1.816147232602816e-8
2,12, 1,12, 0, 7, 0.00,60.00,Monday
4973,-0.8823281256284599
4826,1370477.626014012
4827,3.6067149267182688e-8
2,12, 1,12, 0, 8, 0.00,60.00,Monday
4973,-1.3343475964448564
4826,0.0
4827,0.0
2,12, 1,12, 0, 9, 0.00,60.00,Monday
4973,-1.580299319207715
4826,0.0
4827,0.0
2,12, 1,12, 0,10, 0.00,60.00,Monday
4973,-1.5850281783710117
4826,0.0
4827,0.0
2,12, 1,12, 0,11, 0.00,60.00,Monday
4973,-1.5881100045116239
4826,0.0
4827,0.0
2,12, 1,12, 0,12, 0.00,60.00,Monday
4973,-1.5956766544684285
4826,0.0
4827,0.0
2,12, 1,12, 0,13, 0.00,60.00,Monday
4973,-1.6001851827007284
4826,0.0
4827,0.0
2,12, 1,12, 0,14, 0.00,60.00,Monday
4973,-1.6075857951558089
4826,0.0
4827,0.0
2,12, 1,12, 0,15, 0.00,60.00,Monday
4973,-1.6080189257003786
4826,0.0
4827,0.0
2,12, 1,12, 0,16, 0.00,60.00,Monday
4973,-1.6015809758488727
4826,0.0
4827,0.0
2,12, 1,12, 0,17, 0.00,60.00,Monday
4973,-1.5922994247138789
4826,0.0
4827,0.0
2,12, 1,12, 0,18, 0.00,60.00,Monday
4973,-1.5841526390830075
4826,0.0
4827,0.0
2,12, 1,12, 0,19, 0.00,60.00,Monday
4973,-1.5837793624073775
4826,0.0
4827,0.0
2,12, 1,12, 0,20, 0.00,60.00,Monday
4973,-1.578711503832513
4826,0.0
4827,0.0
2,12, 1,12, 0,21, 0.00,60.00,Monday
4973,-1.5828209451105735
4826,0.0
4827,0.0
2,12, 1,12, 0,22, 0.00,60.00,Monday
4973,-1.116680046322069
4826,2179378.484118978
4827,6.285915787884733e-8
2,12, 1,12, 0,23, 0.00,60.00,Monday
4973,-0.9583866963405154
4826,1481655.547667781
4827,2.0872903405688704e-8
2,12, 1,12, 0,24, 0.00,60.00,Monday
4973,-0.947246703012151
4826,1367786.6970854435
4827,1.8468426787876525e-8
2,13, 1,13, 0, 1, 0.00,60.00,Tuesday
4973,-0.9405763422604786
4826,1544408.408083929
4827,4.77158686617908
2,13, 1,13, 0, 2, 0.00,60.00,Tuesday
4973,-0.9348674182139964
4826,1534308.2898895464
4827,4.0108716348186138e-8
2,13, 1,13, 0, 3, 0.00,60.00,Tuesday
4973,-0.9299886849753043
4826,1527639.8431704452
4827,5.8628302213037389e-8
2,13, 1,13, 0, 4, 0.00,60.00,Tuesday
4973,-0.9256188432599889
4826,1521448.2988353829
4827,5.99584382143803e-8
2,13, 1,13, 0, 5, 0.00,60.00,Tuesday
4973,-0.9214421662698484
4826,1519832.341764661
4827,3.4992808650713417e-8
2,13, 1,13, 0, 6, 0.00,60.00,Tuesday
4973,-0.9174081401060168
4826,1522504.1097476036
4827,9.090967978409026e-8
2,13, 1,13, 0, 7, 0.00,60.00,Tuesday
4973,-0.9146285767020763
4826,1523471.7310082792
4827,1.4478018783847802e-8
2,13, 1,13, 0, 8, 0.00,60.00,Tuesday