Program Version,EnergyPlus, Version 8.7.0-78a111df4a, YMD=2019.06.21 03:08
1,5,Environment Title[],Latitude[deg],Longitude[deg],Time Zone[],Elevation[m]
2,6,Day of Simulation[],Month[],Day of Month[],DST Indicator[1=yes 0=no],Hour[],StartMinute[],EndMinute[],DayType
3,3,Cumulative Day of Simulation[],Month[],Day of Month[],DST Indicator[1=yes 0=no],DayType  ! When Daily Report Variables Requested
4,2,Cumulative Days of Simulation[],Month[]  ! When Monthly Report Variables Requested
5,1,Cumulative Days of Simulation[] ! When Run Period Report Variables Requested
1929,1,THERMAL ZONE: SPACE 201,Zone Air Temperature [C] !Hourly
2695,1,THERMAL ZONE: SPACE 201 PEOPLE,Zone Thermal Comfort Fanger Model PMV [] !Hourly
3063,1,THERMAL ZONE: SPACE 305 PTHP,Zone Packaged Terminal Heat Pump Total Heating Energy [J] !Hourly
3064,1,THERMAL ZONE: SPACE 305 PTHP,Zone Packaged Terminal Heat Pump Total Cooling Energy [J] !Hourly
End of Data Dictionary
1,ANN HTG 99.6% CONDNS DB,  29.58, 106.47,   8.00, 259.10
2,1, 1,21, 0, 1, 0.00,60.00,WinterDesignDay
2695,-6.494100014961014
1929,18.000065947837159
3063,4652458.3778451769
3064,0.0
2,1, 1,21, 0, 2, 0.00,60.00,WinterDesignDay
2695,-6.4980143931752389
1929,18.000049852498838
3063,4671526.109049643
3064,0.0
2,1, 1,21, 0, 3, 0.00,60.00,WinterDesignDay
2695,-6.501280400439415
1929,18.00003580590366
3063,4691337.864367922
3064,0.0
2,1, 1,21, 0, 4, 0.00,60.00,WinterDesignDay
2695,-6.504145590570283
1929,18.000030357434825
3063,4709105.098431656
3064,0.0
2,1, 1,21, 0, 5, 0.00,60.00,WinterDesignDay
2695,-6.506868865365629
1929,18.000023935425625
3063,4729335.088094728
3064,0.0
2,1, 1,21, 0, 6, 0.00,60.00,WinterDesignDay
2695,-6.509128220039975
1929,17.999995922275546
3063,4759702.098353587
3064,0.0
2,1, 1,21, 0, 7, 0.00,60.00,WinterDesignDay
2695,-5.677711833072499
1929,17.999927458057099
3063,4798823.010040346
3064,0.0
2,1, 1,21, 0, 8, 0.00,60.00,WinterDesignDay
2695,-5.674824874425425
1929,17.999833332679704
3063,5185312.305261475
3064,0.0
2,1, 1,21, 0, 9, 0.00,60.00,WinterDesignDay
2695,-5.319621366872895
1929,18.000099123696669
3063,6310378.611587543
3064,0.0
2,1, 1,21, 0,10, 0.00,60.00,WinterDesignDay
2695,-5.300807038947416
1929,18.000706523770569
3063,7304556.897861125
3064,0.0
2,1, 1,21, 0,11, 0.00,60.00,WinterDesignDay
2695,-5.288923721043219
1929,18.000900706560434
3063,7021262.929114336
3064,0.0
2,1, 1,21, 0,12, 0.00,60.00,WinterDesignDay
2695,-5.281176978673199
1929,18.000927817552407
3063,6834820.323478404
3064,0.0
2,1, 1,21, 0,13, 0.00,60.00,WinterDesignDay
2695,-5.276946799186804
1929,18.000841902569083
3063,6365992.960041624
3064,0.0
2,1, 1,21, 0,14, 0.00,60.00,WinterDesignDay
2695,-5.273332819769874
1929,18.000818036302037
3063,6292799.912447136
3064,0.0
2,1, 1,21, 0,15, 0.00,60.00,WinterDesignDay
2695,-5.268691680364031
1929,18.000963482636064
3063,6555749.912344119
3064,0.0
2,1, 1,21, 0,16, 0.00,60.00,WinterDesignDay
2695,-5.266854227725718
1929,18.00109077320367
3063,6543103.64052846
3064,0.0
2,1, 1,21, 0,17, 0.00,60.00,WinterDesignDay
2695,-5.268121558669712
1929,18.001149245564944
3063,6600349.935647527
3064,0.0
2,1, 1,21, 0,18, 0.00,60.00,WinterDesignDay
2695,-5.270475435389371
1929,18.001195758679058
3063,6687286.080325511
3064,0.0
2,1, 1,21, 0,19, 0.00,60.00,WinterDesignDay
2695,-5.615722043304434
1929,18.000683830201383
3063,5222321.934894153
3064,0.0
2,1, 1,21, 0,20, 0.00,60.00,WinterDesignDay
2695,-5.631283677869291
1929,18.000359634713637
3063,5398744.207815081
3064,0.0
2,1, 1,21, 0,21, 0.00,60.00,WinterDesignDay
2695,-5.64159032400577
1929,18.000189133223239
3063,4569422.168389034
3064,0.0
2,1, 1,21, 0,22, 0.00,60.00,WinterDesignDay
2695,-5.649600894216403
1929,18.000115412140717
3063,4613233.292365343
3064,0.0
2,1, 1,21, 0,23, 0.00,60.00,WinterDesignDay
2695,-5.6552445964208009
1929,18.000087776792936
3063,4633960.829211691
3064,0.0
2,1, 1,21, 0,24, 0.00,60.00,WinterDesignDay
2695,-5.6598325331321
1929,18.000075340184428
3063,4647584.958630358
3064,0.0
1,ANN CLG 4% CONDNS DB =>MWB,  29.58, 106.47,   8.00, 259.10
2,1, 7,21, 0, 1, 0.00,60.00,SummerDesignDay
2695,-3.1533196252239699
1929,25.99975930949437
3063,0.0
3064,880760.8777823738
2,1, 7,21, 0, 2, 0.00,60.00,SummerDesignDay
2695,-3.1635825248362368
1929,25.99983070641541
3063,0.0
3064,848310.6518656329
2,1, 7,21, 0, 3, 0.00,60.00,SummerDesignDay
2695,-3.171536559547563
1929,25.999879701624186
3063,0.0
3064,821178.6122032085
2,1, 7,21, 0, 4, 0.00,60.00,SummerDesignDay
2695,-3.1780118695725956
1929,25.99991038311127
3063,0.0
3064,797806.0809487291
2,1, 7,21, 0, 5, 0.00,60.00,SummerDesignDay
2695,-3.183606927893745
1929,25.99993195123228
3063,0.0
3064,775595.2079381852
2,1, 7,21, 0, 6, 0.00,60.00,SummerDesignDay
2695,-3.1884637404764875
1929,25.999961082289869
3063,0.0
3064,750247.1507007917
2,1, 7,21, 0, 7, 0.00,60.00,SummerDesignDay
2695,-3.891845723824684
1929,25.999996553374005
3063,0.0
3064,720143.7802544292
2,1, 7,21, 0, 8, 0.00,60.00,SummerDesignDay
2695,-3.868891804474234
1929,25.999682151099039
3063,0.0
3064,1125085.6901224897
2,1, 7,21, 0, 9, 0.00,60.00,SummerDesignDay
2695,-3.81065114210285
1929,25.99690931168519
3063,0.0
3064,3787199.1737678379
2,1, 7,21, 0,10, 0.00,60.00,SummerDesignDay
2695,-3.6601247492900166
1929,26.58173294109193
3063,0.0
3064,6870184.878885333
2,1, 7,21, 0,11, 0.00,60.00,SummerDesignDay
2695,-3.5470155223427199
1929,26.985685634087458
3063,0.0
3064,6973276.399682952
2,1, 7,21, 0,12, 0.00,60.00,SummerDesignDay
2695,-3.477161049095738
1929,27.287244987044365
3063,0.0
3064,6913879.825353688
2,1, 7,21, 0,13, 0.00,60.00,SummerDesignDay
2695,-3.513818743531466
1929,26.964700716552686
3063,0.0
3064,6569048.146377604
2,1, 7,21, 0,14, 0.00,60.00,SummerDesignDay
2695,-3.5203599789628798
1929,27.020323393838056
3063,0.0
3064,6329961.038133346
2,1, 7,21, 0,15, 0.00,60.00,SummerDesignDay
2695,-3.4102950562966134
1929,27.629700644440164
3063,0.0
3064,6660658.141584824
2,1, 7,21, 0,16, 0.00,60.00,SummerDesignDay
2695,-3.3648031957055228
1929,27.67615032052426
3063,0.0
3064,6920660.781810404
2,1, 7,21, 0,17, 0.00,60.00,SummerDesignDay
2695,-3.380411768767836
1929,27.55330986576462
3063,0.0
3064,7013862.947669029
2,1, 7,21, 0,18, 0.00,60.00,SummerDesignDay
2695,-3.40734822615465
1929,27.378908962320165
3063,0.0
3064,7108918.249469515
2,1, 7,21, 0,19, 0.00,60.00,SummerDesignDay
2695,-3.581485881354237
1929,26.04758328453644
3063,0.0
3064,4159812.4755760675
2,1, 7,21, 0,20, 0.00,60.00,SummerDesignDay
2695,-3.6917150160341385
1929,25.997022646753839
3063,0.0
3064,3390451.4951194475
2,1, 7,21, 0,21, 0.00,60.00,SummerDesignDay
2695,-3.725761778348637
1929,25.998587635313468
3063,0.0
3064,1361030.7849672724
2,1, 7,21, 0,22, 0.00,60.00,SummerDesignDay
2695,-3.7777837230942219
1929,25.999173673942939
3063,0.0
3064,1133531.3013866463
2,1, 7,21, 0,23, 0.00,60.00,SummerDesignDay
2695,-3.809118740453823
1929,25.99947577833827
3063,0.0
3064,1018942.525152862
2,1, 7,21, 0,24, 0.00,60.00,SummerDesignDay
2695,-3.8296786504679178
1929,25.999659722713166
3063,0.0
3064,948931.9567503666
1,RUN PERIOD 1,  29.58, 106.47,   8.00, 259.10
2,1, 1, 1, 0, 1, 0.00,60.00,Holiday
2695,-6.116790788515233
1929,18.000204207432807
3063,1693434.8501592233
3064,0.0
2,1, 1, 1, 0, 2, 0.00,60.00,Holiday
2695,-6.119972504057114
1929,18.00007996459081
3063,1721077.179141487
3064,0.0
2,1, 1, 1, 0, 3, 0.00,60.00,Holiday
2695,-6.1215784554034509
1929,18.000056002958425
3063,1725686.3573648448
3064,0.0
2,1, 1, 1, 0, 4, 0.00,60.00,Holiday
2695,-6.123389323781894
1929,18.000074553739358
3063,1725069.6040009666
3064,0.0
2,1, 1, 1, 0, 5, 0.00,60.00,Holiday
2695,-6.126564749847599
1929,18.00012810346848
3063,1720227.9459921532
3064,0.0
2,1, 1, 1, 0, 6, 0.00,60.00,Holiday
2695,-6.1334195390238979
1929,18.000164394355946
3063,1660623.2534925077
3064,0.0
2,1, 1, 1, 0, 7, 0.00,60.00,Holiday
2695,-6.539750044235785
1929,18.00012391894455
3063,1707412.8589391146
3064,0.0
2,1, 1, 1, 0, 8, 0.00,60.00,Holiday
2695,-6.548916900501759
1929,18.000079898272323
3063,1768241.2365379479
3064,0.0
2,1, 1, 1, 0, 9, 0.00,60.00,Holiday
2695,-6.055010494812589
1929,18.00004025737012
3063,1827969.4372182256
3064,0.0
2,1, 1, 1, 0,10, 0.00,60.00,Holiday
2695,-6.057829110630229
1929,18.000009000508084
3063,1891948.241519324
3064,0.0
2,1, 1, 1, 0,11, 0.00,60.00,Holiday
2695,-6.058748296435424
1929,18.000005591317124
3063,1934907.75279726
3064,0.0
2,1, 1, 1, 0,12, 0.00,60.00,Holiday
2695,-6.059406233769686
1929,18.000002279883064
3063,1956766.2295708396
3064,0.0
2,1, 1, 1, 0,13, 0.00,60.00,Holiday
2695,-6.060174426060834
1929,18.000000668203396
3063,1999254.8302954669
3064,0.0
2,1, 1, 1, 0,14, 0.00,60.00,Holiday
2695,-6.058960107984742
1929,18.000000553927447
3063,2039235.7584391705
3064,0.0
2,1, 1, 1, 0,15, 0.00,60.00,Holiday
2695,-6.0554294934807759
1929,18.000000446622658
3063,2063750.7149672979
3064,0.0
2,1, 1, 1, 0,16, 0.00,60.00,Holiday
2695,-6.049434683274683
1929,18.00000034822936
3063,2075206.9773787005
3064,0.0
2,1, 1, 1, 0,17, 0.00,60.00,Holiday
2695,-6.040887276858554
1929,18.000000272194624
3063,2071050.1394103757
3064,0.0
2,1, 1, 1, 0,18, 0.00,60.00,Holiday
2695,-6.030188182507845
1929,18.000000224862359
3063,2045263.987969371
3064,0.0
2,1, 1, 1, 0,19, 0.00,60.00,Holiday
2695,-6.512141030861137
1929,18.000000199520966
3063,1995422.901903429
3064,0.0
2,1, 1, 1, 0,20, 0.00,60.00,Holiday
2695,-6.499526376649645
1929,18.00000020320079
3063,1905334.327790481
3064,0.0
2,1, 1, 1, 0,21, 0.00,60.00,Holiday
2695,-6.492328377446571
1929,18.000051689899434
3063,1791810.3580588517
3064,0.0
2,1, 1, 1, 0,22, 0.00,60.00,Holiday
2695,-6.492415385393966
1929,18.000281827500435
3063,1706064.3637435225
3064,0.0
2,1, 1, 1, 0,23, 0.00,60.00,Holiday
2695,-6.497675528279358
1929,18.000375991880408
3063,1667139.8434447596
3064,0.0
2,1, 1, 1, 0,24, 0.00,60.00,Holiday
2695,-6.504999151197745
1929,18.000368972457208
3063,1657375.8746904163
3064,0.0
2,2, 1, 2, 0, 1, 0.00,60.00,Holiday
2695,-6.511935904127777
1929,18.00033709716005
3063,1657394.6674962757
3064,0.0
2,2, 1, 2, 0, 2, 0.00,60.00,Holiday
2695,-6.518958325924159
1929,18.00027648095057
3063,1671224.529113958
3064,0.0
2,2, 1, 2, 0, 3, 0.00,60.00,Holiday
2695,-6.525379187080698
1929,18.000201028443063
3063,1694205.5266641426
3064,0.0
2,2, 1, 2, 0, 4, 0.00,60.00,Holiday
2695,-6.53041939964308
1929,18.00014227866588
3063,1716781.7459377666
3064,0.0
2,2, 1, 2, 0, 5, 0.00,60.00,Holiday
2695,-6.5345280741071909
1929,18.000102919322236
3063,1739268.0711846273
3064,0.0
2,2, 1, 2, 0, 6, 0.00,60.00,Holiday
2695,-6.538111144297406
1929,18.000076704872226
3063,1763572.6603860525
3064,0.0
2,2, 1, 2, 0, 7, 0.00,60.00,Holiday
2695,-6.641813510425778
1929,18.0000659122646
3063,1787725.2323026602
3064,0.0
2,2, 1, 2, 0, 8, 0.00,60.00,Holiday
2695,-6.6451492596806569
1929,18.000050893152744
3063,1817281.4741019689
3064,0.0
2,2, 1, 2, 0, 9, 0.00,60.00,Holiday
2695,-6.130881935874574
1929,18.000004863761018
3063,1867493.0320604474
3064,0.0
2,2, 1, 2, 0,10, 0.00,60.00,Holiday
2695,-6.131085623603155
1929,18.00000052920015
3063,1921907.9021441106
3064,0.0
2,2, 1, 2, 0,11, 0.00,60.00,Holiday
2695,-6.129717933553557
1929,18.000000471320889
3063,1946415.5479650456
3064,0.0
2,2, 1, 2, 0,12, 0.00,60.00,Holiday
2695,-6.128726380996224
1929,18.00000042968477
3063,1965651.7954709368
3064,0.0
2,2, 1, 2, 0,13, 0.00,60.00,Holiday
2695,-6.12783008065643
1929,18.00000039673276
3063,1983035.1167229969
3064,0.0
2,2, 1, 2, 0,14, 0.00,60.00,Holiday
2695,-6.126735973467863
1929,18.00000036007567
3063,1996482.8313823336
3064,0.0
2,2, 1, 2, 0,15, 0.00,60.00,Holiday
2695,-6.124505750753414
1929,18.000000312950655
3063,2011835.3809882489
3064,0.0
2,2, 1, 2, 0,16, 0.00,60.00,Holiday
2695,-6.119961721318984
1929,18.0000002695858
3063,2014710.9044006766
3064,0.0
2,2, 1, 2, 0,17, 0.00,60.00,Holiday
2695,-6.11359672138405
1929,18.000000256450926
3063,1967623.592386026
3064,0.0
2,2, 1, 2, 0,18, 0.00,60.00,Holiday
2695,-6.1083440702550189
1929,18.000000272131137
3063,1891543.0297995122
3064,0.0
2,2, 1, 2, 0,19, 0.00,60.00,Holiday
2695,-6.617397328311121
1929,18.000022347837989
3063,1823005.0233449317
3064,0.0
2,2, 1, 2, 0,20, 0.00,60.00,Holiday
2695,-6.615556716051413
1929,18.000091736676706
3063,1766310.6182683819
3064,0.0
2,2, 1, 2, 0,21, 0.00,60.00,Holiday
2695,-6.615183902300906
1929,18.000089600582198
3063,1735786.4251542972
3064,0.0
2,2, 1, 2, 0,22, 0.00,60.00,Holiday
2695,-6.614647853756971
1929,18.00002048415647
3063,1732275.181031811
3064,0.0
2,2, 1, 2, 0,23, 0.00,60.00,Holiday
2695,-6.613052108348776
1929,18.000000373957375
3063,1725814.5889826369
3064,0.0
2,2, 1, 2, 0,24, 0.00,60.00,Holiday
2695,-6.612053248573656
1929,18.000041927932064
3063,1701648.394175691
3064,0.0
2,3, 1, 3, 0, 1, 0.00,60.00,Holiday
2695,-6.613838314030339
1929,18.00011219930751
3063,1684460.2670675736
3064,0.0
2,3, 1, 3, 0, 2, 0.00,60.00,Holiday
2695,-6.618006556630856
1929,18.000203534165803
3063,1664799.514762093
3064,0.0
2,3, 1, 3, 0, 3, 0.00,60.00,Holiday
2695,-6.625657621675298
1929,18.00024420942109
3063,1618558.4277801272
3064,0.0
2,3, 1, 3, 0, 4, 0.00,60.00,Holiday
2695,-6.638885553772689
1929,18.00015889818543
3063,1658173.7586246378
3064,0.0
2,3, 1, 3, 0, 5, 0.00,60.00,Holiday
2695,-6.6485197326910578
1929,18.000082658401764
3063,1734194.1017958539
3064,0.0
2,3, 1, 3, 0, 6, 0.00,60.00,Holiday
2695,-6.6541643019426159
1929,18.000040780868806
3063,1785996.532424103
3064,0.0
2,3, 1, 3, 0, 7, 0.00,60.00,Holiday
2695,-6.559597437025289
1929,18.000007564055609
3063,1855079.2157401122
3064,0.0
2,3, 1, 3, 0, 8, 0.00,60.00,Holiday
2695,-6.5600841487883729
1929,18.00000360286329
3063,1880145.1796194374
3064,0.0
2,3, 1, 3, 0, 9, 0.00,60.00,Holiday
2695,-6.060146465004678
1929,18.000000703165936
3063,1912131.9034816744
3064,0.0
2,3, 1, 3, 0,10, 0.00,60.00,Holiday
2695,-6.0609209995286978
1929,18.000000659158883
3063,1946468.0773703056
3064,0.0
2,3, 1, 3, 0,11, 0.00,60.00,Holiday
2695,-6.061893080862741
1929,18.000000625954976
3063,1981947.277381219
3064,0.0
2,3, 1, 3, 0,12, 0.00,60.00,Holiday
2695,-6.062817607075638
1929,18.00000059528647
3063,2014414.9201546228
3064,0.0
2,3, 1, 3, 0,13, 0.00,60.00,Holiday
2695,-6.063999311704889
1929,18.000000573948637
3063,2045282.2608600702
3064,0.0
2,3, 1, 3, 0,14, 0.00,60.00,Holiday
2695,-6.065208306747201
1929,18.000000558432395
3063,2076162.8277610336
3064,0.0
2,3, 1, 3, 0,15, 0.00,60.00,Holiday
2695,-6.066261426336446
1929,18.00000054966387
3063,2106511.359590003
3064,0.0
2,3, 1, 3, 0,16, 0.00,60.00,Holiday
2695,-6.066921808224419
1929,18.000000545270607
3063,2133481.617887478
3064,0.0
2,3, 1, 3, 0,17, 0.00,60.00,Holiday
2695,-6.067079194418071
1929,18.000000539964444
3063,2162239.6554197065
3064,0.0
2,3, 1, 3, 0,18, 0.00,60.00,Holiday
2695,-6.0663838584545719
1929,18.000000540648455
3063,2183386.128821
3064,0.0
2,3, 1, 3, 0,19, 0.00,60.00,Holiday
2695,-6.568262537761261
1929,18.000000538770537
3063,2200617.4570332115
3064,0.0
2,3, 1, 3, 0,20, 0.00,60.00,Holiday
2695,-6.5661772822784389
1929,18.000000544700034
3063,2213887.8450389236
3064,0.0
2,3, 1, 3, 0,21, 0.00,60.00,Holiday
2695,-6.563731939543132
1929,18.000000553551545
3063,2220462.2844150725
3064,0.0
2,3, 1, 3, 0,22, 0.00,60.00,Holiday
2695,-6.561473552314994
1929,18.000000564284624
3063,2221680.7972623656
3064,0.0
2,3, 1, 3, 0,23, 0.00,60.00,Holiday
2695,-6.559844933113827
1929,18.000000580604838
3063,2224005.6458617977
3064,0.0
2,3, 1, 3, 0,24, 0.00,60.00,Holiday
2695,-6.558895136752767
1929,18.000000597402793
3063,2222132.604842743
3064,0.0
2,4, 1, 4, 0, 1, 0.00,60.00,Wednesday
2695,-6.558944507493571
1929,18.000000614781006
3063,2228760.0948575276
3064,0.0
2,4, 1, 4, 0, 2, 0.00,60.00,Wednesday
2695,-6.559265923970174
1929,18.000001916360039
3063,2233381.359731948
3064,0.0
2,4, 1, 4, 0, 3, 0.00,60.00,Wednesday
2695,-6.56010955671938
1929,18.000001378430637
3063,2243324.1474640665
3064,0.0
2,4, 1, 4, 0, 4, 0.00,60.00,Wednesday
2695,-6.560808820669934
1929,18.00000067035582
3063,2256933.2736879459
3064,0.0
2,4, 1, 4, 0, 5, 0.00,60.00,Wednesday
2695,-6.561136888160664
1929,18.000000681197883
3063,2273133.765657686
3064,0.0
2,4, 1, 4, 0, 6, 0.00,60.00,Wednesday
2695,-6.560905853674282
1929,18.00000069468749
3063,2284016.929175838
3064,0.0
2,4, 1, 4, 0, 7, 0.00,60.00,Wednesday
2695,-6.690280464575307
1929,18.00000070610975
3063,2289638.063901058
3064,0.0
2,4, 1, 4, 0, 8, 0.00,60.00,Wednesday
2695,-6.6887275864930439
1929,18.00002531631213
3063,2286165.2820962688
3064,0.0
2,4, 1, 4, 0, 9, 0.00,60.00,Wednesday
2695,-6.152170497349009
1929,18.00020552358961
3063,2195567.074141968
3064,0.0
2,4, 1, 4, 0,10, 0.00,60.00,Wednesday
2695,-6.13467284190942
1929,18.00042002872506
3063,2041240.6303572136
3064,0.0
2,4, 1, 4, 0,11, 0.00,60.00,Wednesday
2695,-6.128671545125555
1929,18.000510136683685
3063,1953990.4567095738
3064,0.0
2,4, 1, 4, 0,12, 0.00,60.00,Wednesday
2695,-6.129614400991322
1929,18.000489388441165
3063,1894291.1582356985
3064,0.0
2,4, 1, 4, 0,13, 0.00,60.00,Wednesday
2695,-6.1314283018818929
1929,18.00047530375055
3063,1859381.9563258857
3064,0.0
2,4, 1, 4, 0,14, 0.00,60.00,Wednesday
2695,-6.132033732063274
1929,18.000411215331324
3063,1774381.7018239776
3064,0.0
2,4, 1, 4, 0,15, 0.00,60.00,Wednesday
2695,-6.126593226575017
1929,18.00029261661117
3063,1569212.2142232627
3064,0.0
2,4, 1, 4, 0,16, 0.00,60.00,Wednesday
2695,-6.11608522085411
1929,18.00022453585659
3063,1401814.8075927487
3064,0.0
2,4, 1, 4, 0,17, 0.00,60.00,Wednesday
2695,-6.105385386600582
1929,18.000223145104007
3063,1314992.1639623668
3064,0.0
2,4, 1, 4, 0,18, 0.00,60.00,Wednesday
2695,-6.099469548916595
1929,18.00024732741468
3063,1318064.5652285643
3064,0.0
2,4, 1, 4, 0,19, 0.00,60.00,Wednesday
2695,-6.619111162368275
1929,18.00040313077851
3063,1789762.9135564133
3064,0.0
2,4, 1, 4, 0,20, 0.00,60.00,Wednesday
2695,-6.6312577063652828
1929,18.00027510972505
3063,1850899.257521646
3064,0.0
2,4, 1, 4, 0,21, 0.00,60.00,Wednesday
2695,-6.639980195624922
1929,18.00025532252704
3063,1972705.799284615
3064,0.0
2,4, 1, 4, 0,22, 0.00,60.00,Wednesday
2695,-6.646741634738826
1929,18.00019247068954
3063,1988704.2403879564
3064,0.0
2,4, 1, 4, 0,23, 0.00,60.00,Wednesday
2695,-6.6518229786105389
1929,18.00014774858295
3063,1996641.119219209
3064,0.0
2,4, 1, 4, 0,24, 0.00,60.00,Wednesday
2695,-6.656147449999749
1929,18.00013125727978
3063,1999517.240337002
3064,0.0
2,5, 1, 5, 0, 1, 0.00,60.00,Thursday
2695,-6.660833985992229
1929,18.00011856298394
3063,2006064.2038125755
3064,0.0
2,5, 1, 5, 0, 2, 0.00,60.00,Thursday
2695,-6.665161856455538
1929,18.000112639246774
3063,2013709.174012336
3064,0.0
2,5, 1, 5, 0, 3, 0.00,60.00,Thursday
2695,-6.669190886780615
1929,18.000127106755554
3063,2017989.1409769443
3064,0.0
2,5, 1, 5, 0, 4, 0.00,60.00,Thursday
2695,-6.673814994889336
1929,18.000158472324214
3063,2019727.4519943263
3064,0.0
2,5, 1, 5, 0, 5, 0.00,60.00,Thursday
2695,-6.679184875187777
1929,18.000163720021609
3063,2030994.2572330503
3064,0.0
2,5, 1, 5, 0, 6, 0.00,60.00,Thursday
2695,-6.68448563302817
1929,18.000150887299218
3063,2046554.6785896728
3064,0.0
2,5, 1, 5, 0, 7, 0.00,60.00,Thursday
2695,-6.7012701416892119
1929,18.0001630957706
3063,2052980.1359142066
3064,0.0
2,5, 1, 5, 0, 8, 0.00,60.00,Thursday
2695,-6.705370281355262
1929,18.00015559881914
3063,2065519.1759429174
3064,0.0
2,5, 1, 5, 0, 9, 0.00,60.00,Thursday
2695,-6.170391747200525
1929,18.000225994185269
3063,1998957.5478630076
3064,0.0
2,5, 1, 5, 0,10, 0.00,60.00,Thursday
2695,-6.152990507055939
1929,18.00036561671818
3063,1857583.9571067659
3064,0.0
2,5, 1, 5, 0,11, 0.00,60.00,Thursday
2695,-6.143317620159498
1929,18.000422536677573
3063,1765361.4455433274
3064,0.0
2,5, 1, 5, 0,12, 0.00,60.00,Thursday
2695,-6.1394698066894659
1929,18.0004157522971
3063,1703174.3178329096
3064,0.0
2,5, 1, 5, 0,13, 0.00,60.00,Thursday
2695,-6.137525886460055
1929,18.000390062430517
3063,1683427.257361202
3064,0.0
2,5, 1, 5, 0,14, 0.00,60.00,Thursday
2695,-6.133542993821728
1929,18.00036408143508
3063,1620458.1890946795
3064,0.0
2,5, 1, 5, 0,15, 0.00,60.00,Thursday
2695,-6.127941031874307
1929,18.00032018786244
3063,1484585.7664638386
3064,0.0
2,5, 1, 5, 0,16, 0.00,60.00,Thursday
2695,-6.122729318850709
1929,18.000295009982979
3063,1391091.961282145
3064,0.0
2,5, 1, 5, 0,17, 0.00,60.00,Thursday
2695,-6.1180845773364569
1929,18.000262436918406
3063,1298003.5325715459
3064,0.0
2,5, 1, 5, 0,18, 0.00,60.00,Thursday
2695,-6.1136415944921229
1929,18.000237092212687
3063,1213108.9429582367
3064,0.0
2,5, 1, 5, 0,19, 0.00,60.00,Thursday
2695,-6.636045564944049
1929,18.000375940369066
3063,1613380.454442062
3064,0.0
2,5, 1, 5, 0,20, 0.00,60.00,Thursday
2695,-6.648700515038356
1929,18.000259038413046
3063,1651141.6253938312
3064,0.0
2,5, 1, 5, 0,21, 0.00,60.00,Thursday
2695,-6.658045545170581
1929,18.00026800709831
3063,1821052.7278530945
3064,0.0
2,5, 1, 5, 0,22, 0.00,60.00,Thursday
2695,-6.6656470569524048
1929,18.000234739592078
3063,1836512.9649326448
3064,0.0
2,5, 1, 5, 0,23, 0.00,60.00,Thursday
2695,-6.672174947133688
1929,18.00018663022281
3063,1853308.8577037957
3064,0.0
2,5, 1, 5, 0,24, 0.00,60.00,Thursday
2695,-6.677244812951038
1929,18.000092484751528
3063,1883110.8007700914
3064,0.0
2,6, 1, 6, 0, 1, 0.00,60.00,Friday
2695,-6.679656772139938
1929,18.000037909329309
3063,1899709.4146479758
3064,0.0
2,6, 1, 6, 0, 2, 0.00,60.00,Friday
2695,-6.681194285675551
1929,18.00000467531685
3063,1918053.8151912662
3064,0.0
2,6, 1, 6, 0, 3, 0.00,60.00,Friday
2695,-6.681677406014933
1929,18.00000050401776
3063,1938319.7911292434
3064,0.0
2,6, 1, 6, 0, 4, 0.00,60.00,Friday
2695,-6.681206519928299
1929,18.000000521711038
3063,1954382.946558196
3064,0.0
2,6, 1, 6, 0, 5, 0.00,60.00,Friday
2695,-6.680224193973928
1929,18.00000053318929
3063,1967424.6876946369
3064,0.0
2,6, 1, 6, 0, 6, 0.00,60.00,Friday
2695,-6.679120292628618
1929,18.000000539746507
3063,1980162.6275911085
3064,0.0
2,6, 1, 6, 0, 7, 0.00,60.00,Friday
2695,-6.675375300439055
1929,18.000000546404605
3063,1981725.6246363186
3064,0.0
2,6, 1, 6, 0, 8, 0.00,60.00,Friday
2695,-6.673988644814763
1929,18.000019288329268
3063,1976480.1565393573
3064,0.0
2,6, 1, 6, 0, 9, 0.00,60.00,Friday
2695,-6.140489734442954
1929,18.00016690147257
3063,1856532.9436447204
3064,0.0
2,6, 1, 6, 0,10, 0.00,60.00,Friday
2695,-6.121236227027068
1929,18.000296954192107
3063,1577878.40161273
3064,0.0
2,6, 1, 6, 0,11, 0.00,60.00,Friday
2695,-6.1123439752868828
1929,18.000306278325618
3063,1387102.2062697528
3064,0.0
2,6, 1, 6, 0,12, 0.00,60.00,Friday
2695,-6.109929636346621
1929,18.000239825595356
3063,1220310.3995002218
3064,0.0
2,6, 1, 6, 0,13, 0.00,60.00,Friday
2695,-6.10855850642407
1929,18.000212096226254
3063,1143183.5631374738
3064,0.0
2,6, 1, 6, 0,14, 0.00,60.00,Friday
2695,-6.105654298091577
1929,18.000161429542627
3063,951598.343854042
3064,0.0
2,6, 1, 6, 0,15, 0.00,60.00,Friday
2695,-6.078171153972186
1929,18.147691716652184
3063,516348.6132741768
3064,0.0
2,6, 1, 6, 0,16, 0.00,60.00,Friday
2695,-6.014929198225887
1929,18.40671534742751
3063,214941.24320285754
3064,0.0
2,6, 1, 6, 0,17, 0.00,60.00,Friday
2695,-5.964342940644522
1929,18.54213472078437
3063,57035.93197577028
3064,0.0
2,6, 1, 6, 0,18, 0.00,60.00,Friday
2695,-5.945346951616339
1929,18.540720981304597
3063,41287.47746564175
3064,0.0
2,6, 1, 6, 0,19, 0.00,60.00,Friday
2695,-6.511588859402779
1929,18.02169217586214
3063,972414.8193859253
3064,0.0
2,6, 1, 6, 0,20, 0.00,60.00,Friday
2695,-6.542619143130359
1929,18.00016335722829
3063,973697.0754328655
3064,0.0
2,6, 1, 6, 0,21, 0.00,60.00,Friday
2695,-6.547333225747702
1929,18.000241426135234
3063,1250580.5904390943
3064,0.0
2,6, 1, 6, 0,22, 0.00,60.00,Friday
2695,-6.549143492809326
1929,18.00020440536299
3063,1221122.3148574096
3064,0.0
2,6, 1, 6, 0,23, 0.00,60.00,Friday
2695,-6.550933988009876
1929,18.00019301493747
3063,1195350.7154173013
3064,0.0
2,6, 1, 6, 0,24, 0.00,60.00,Friday
2695,-6.553682931706136
1929,18.000193010291335
3063,1178831.4158284579
3064,0.0
2,7, 1, 7, 0, 1, 0.00,60.00,Saturday
2695,-6.557588303823139
1929,18.00018381297913
3063,1175562.606964496
3064,0.0
2,7, 1, 7, 0, 2, 0.00,60.00,Saturday
2695,-6.562214076315954
1929,18.00018806625071
3063,1177217.379411028
3064,0.0
2,7, 1, 7, 0, 3, 0.00,60.00,Saturday
2695,-6.567830216690336
1929,18.00020549683455
3063,1182318.3742449948
3064,0.0
2,7, 1, 7, 0, 4, 0.00,60.00,Saturday
2695,-6.574781758063758
1929,18.000229134669906
3063,1190756.4592734753
3064,0.0
2,7, 1, 7, 0, 5, 0.00,60.00,Saturday
2695,-6.583321770012908
1929,18.00025937200023
3063,1179879.8387990953
3064,0.0
2,7, 1, 7, 0, 6, 0.00,60.00,Saturday
2695,-6.59911355559496
1929,18.000230162504953
3063,1134643.838381706
3064,0.0
2,7, 1, 7, 0, 7, 0.00,60.00,Saturday
2695,-6.41122525088353
1929,18.000157400712426
3063,1214387.2230046043
3064,0.0
2,7, 1, 7, 0, 8, 0.00,60.00,Saturday
2695,-6.4253617747151419
1929,18.00009634190711
3063,1295273.6511416543
3064,0.0
2,7, 1, 7, 0, 9, 0.00,60.00,Saturday
2695,-5.9577695107908499
1929,18.000059334282399
3063,1361275.7169908796
3064,0.0
2,7, 1, 7, 0,10, 0.00,60.00,Saturday
2695,-5.963994883151966
1929,18.000045932582613
3063,1413482.0919351849
3064,0.0
2,7, 1, 7, 0,11, 0.00,60.00,Saturday
2695,-5.969406763577003
1929,18.00003392534185
3063,1471151.3011456053
3064,0.0
2,7, 1, 7, 0,12, 0.00,60.00,Saturday
2695,-5.9737578655135439
1929,18.000023600040739
3063,1522526.9927714759
3064,0.0
2,7, 1, 7, 0,13, 0.00,60.00,Saturday
2695,-5.976600183270379
1929,18.000001797657146
3063,1565659.5515460415
3064,0.0
2,7, 1, 7, 0,14, 0.00,60.00,Saturday
2695,-5.977010936302693
1929,18.00000023138134
3063,1596375.9002056637
3064,0.0
2,7, 1, 7, 0,15, 0.00,60.00,Saturday
2695,-5.974054101134591
1929,18.000000149530519
3063,1611344.3331503764
3064,0.0
2,7, 1, 7, 0,16, 0.00,60.00,Saturday
2695,-5.96677470316104
1929,18.0000001000426
3063,1590407.7462206458
3064,0.0
2,7, 1, 7, 0,17, 0.00,60.00,Saturday
2695,-5.956414904491201
1929,18.00000008524012
3063,1502631.7585986492
3064,0.0
2,7, 1, 7, 0,18, 0.00,60.00,Saturday
2695,-5.946261046250321
1929,18.00000008395443
3063,1392374.4413411217
3064,0.0
2,7, 1, 7, 0,19, 0.00,60.00,Saturday
2695,-6.410049241350431
1929,18.00000008430791
3063,1289905.4924766606
3064,0.0
2,7, 1, 7, 0,20, 0.00,60.00,Saturday
2695,-6.398873323532945
1929,18.000000085421946
3063,1201727.6505975459
3064,0.0
2,7, 1, 7, 0,21, 0.00,60.00,Saturday
2695,-6.388702551037483
1929,18.00000008758317
3063,1129173.4916620902
3064,0.0
2,7, 1, 7, 0,22, 0.00,60.00,Saturday
2695,-6.380362400063475
1929,18.000000091022846
3063,1074031.0597267987
3064,0.0
2,7, 1, 7, 0,23, 0.00,60.00,Saturday
2695,-6.374175526952471
1929,18.000000095238474
3063,1035142.9124644693
3064,0.0
2,7, 1, 7, 0,24, 0.00,60.00,Saturday
2695,-6.370265308036917
1929,18.000007493372367
3063,1010664.6632802604
3064,0.0
2,8, 1, 8, 0, 1, 0.00,60.00,Sunday
2695,-6.368356569259514
1929,18.000013705884496
3063,1005044.6076980069
3064,0.0
2,8, 1, 8, 0, 2, 0.00,60.00,Sunday
2695,-6.367609583438576
1929,18.0000134189844
3063,1011045.2224127395
3064,0.0
2,8, 1, 8, 0, 3, 0.00,60.00,Sunday
2695,-6.36784468899218
1929,18.000018678867865
3063,1023771.2393459844
3064,0.0
2,8, 1, 8, 0, 4, 0.00,60.00,Sunday
2695,-6.369009567884738
1929,18.000024188758706
3063,1043468.6897517414
3064,0.0
2,8, 1, 8, 0, 5, 0.00,60.00,Sunday
2695,-6.370934660684956
1929,18.00002215166241
3063,1071189.0107603339
3064,0.0
2,8, 1, 8, 0, 6, 0.00,60.00,Sunday
2695,-6.373358650932033
1929,18.00002837553514
3063,1100329.5454640354
3064,0.0
2,8, 1, 8, 0, 7, 0.00,60.00,Sunday
2695,-6.585808511902413
1929,18.000038831242177
3063,1131433.007848644
3064,0.0
2,8, 1, 8, 0, 8, 0.00,60.00,Sunday
2695,-6.5895785268287538
1929,18.00004505173113
3063,1166446.0602476758
3064,0.0
2,8, 1, 8, 0, 9, 0.00,60.00,Sunday
2695,-6.08759204178705
1929,18.00004313632572
3063,1206282.1325280087
3064,0.0
2,8, 1, 8, 0,10, 0.00,60.00,Sunday
2695,-6.09105863973248
1929,18.000034600675737
3063,1249416.5975542693
3064,0.0
2,8, 1, 8, 0,11, 0.00,60.00,Sunday
2695,-6.09436690329018
1929,18.00001115543849
3063,1297358.4024820224
3064,0.0
2,8, 1, 8, 0,12, 0.00,60.00,Sunday
2695,-6.097178866261106
1929,18.000000165029144
3063,1339611.4736204495
3064,0.0
2,8, 1, 8, 0,13, 0.00,60.00,Sunday
2695,-6.099690601996833
1929,18.000003238352869
3063,1371284.2065832585
3064,0.0
2,8, 1, 8, 0,14, 0.00,60.00,Sunday
2695,-6.101787110383548
1929,18.000000724521063
3063,1396390.918026935
3064,0.0
2,8, 1, 8, 0,15, 0.00,60.00,Sunday
2695,-6.102907063422976
1929,18.000000120038494
3063,1409897.1900278817
3064,0.0
2,8, 1, 8, 0,16, 0.00,60.00,Sunday
2695,-6.102557562598243
1929,18.00000010870038
3063,1406053.4504816109
3064,0.0
2,8, 1, 8, 0,17, 0.00,60.00,Sunday
2695,-6.100444931681351
1929,18.000000100457198
3063,1380923.1589687593
3064,0.0
2,8, 1, 8, 0,18, 0.00,60.00,Sunday
2695,-6.096751329354009
1929,18.00000009702001
3063,1340070.7716324032
3064,0.0
2,8, 1, 8, 0,19, 0.00,60.00,Sunday
2695,-6.599274195976925
1929,18.000000098987756
3063,1283662.8074686984
3064,0.0
2,8, 1, 8, 0,20, 0.00,60.00,Sunday
2695,-6.593209864679198
1929,18.000000102139123
3063,1227357.8299976635
3064,0.0
2,8, 1, 8, 0,21, 0.00,60.00,Sunday
2695,-6.587938307054032
1929,18.0000001039934
3063,1189824.8090527689
3064,0.0
2,8, 1, 8, 0,22, 0.00,60.00,Sunday
2695,-6.583359043587639
1929,18.000000103086149
3063,1174380.2856849845
3064,0.0
2,8, 1, 8, 0,23, 0.00,60.00,Sunday
2695,-6.579214345185034
1929,18.000000105310617
3063,1161899.019468098
3064,0.0
2,8, 1, 8, 0,24, 0.00,60.00,Sunday
2695,-6.576412901165902
1929,18.000000117029214
3063,1149944.5994015609
3064,0.0
2,9, 1, 9, 0, 1, 0.00,60.00,Monday
2695,-6.57574614172226
1929,18.000003934132758
3063,1143063.5042803433
3064,0.0
2,9, 1, 9, 0, 2, 0.00,60.00,Monday
2695,-6.576763254950265
1929,18.000023974882898
3063,1149079.0224419998
3064,0.0
2,9, 1, 9, 0, 3, 0.00,60.00,Monday
2695,-6.57863182322938
1929,18.000030148888304
3063,1168371.2923295717
3064,0.0
2,9, 1, 9, 0, 4, 0.00,60.00,Monday
2695,-6.581083562521631
1929,18.00002242220565
3063,1196996.9289146753
3064,0.0
2,9, 1, 9, 0, 5, 0.00,60.00,Monday
2695,-6.583737191831503
1929,18.000010527670708