Program Version,EnergyPlus, Version 8.7.0-78a111df4a, YMD=2019.08.06 22:38
1,5,Environment Title[],Latitude[deg],Longitude[deg],Time Zone[],Elevation[m]
2,6,Day of Simulation[],Month[],Day of Month[],DST Indicator[1=yes 0=no],Hour[],StartMinute[],EndMinute[],DayType
3,3,Cumulative Day of Simulation[],Month[],Day of Month[],DST Indicator[1=yes 0=no],DayType  ! When Daily Report Variables Requested
4,2,Cumulative Days of Simulation[],Month[]  ! When Monthly Report Variables Requested
5,1,Cumulative Days of Simulation[] ! When Run Period Report Variables Requested
5408,1,3F-B-BED2,Zone Air Temperature [C] !Hourly
7437,1,3F-B-BED2 IDEAL LOADS AIR SYSTEM,Zone Ideal Loads Zone Total Heating Energy [J] !Hourly
7438,1,3F-B-BED2 IDEAL LOADS AIR SYSTEM,Zone Ideal Loads Zone Total Cooling Energy [J] !Hourly
7592,1,3F-B-BED2 BEDROOM-B,Zone Thermal Comfort Fanger Model PMV [] !Hourly
End of Data Dictionary
1,ANNUAL,  29.58, 106.47,   8.00, 259.10
2,1, 1, 1, 0, 1, 0.00,60.00,Sunday
7592,-0.9999370165091697
5408,17.99999999999999
7437,826326.5494819809
7438,0.0
2,1, 1, 1, 0, 2, 0.00,60.00,Sunday
7592,-0.9871377348614409
5408,17.999999999999994
7437,841338.0537979165
7438,0.0
2,1, 1, 1, 0, 3, 0.00,60.00,Sunday
7592,-0.9807118464701977
5408,18.000000000000008
7437,841290.539441487
7438,0.0
2,1, 1, 1, 0, 4, 0.00,60.00,Sunday
7592,-0.9783002060361422
5408,17.999999999999984
7437,857941.9140646294
7438,0.0
2,1, 1, 1, 0, 5, 0.00,60.00,Sunday
7592,-0.9783091589827301
5408,17.999999999999987
7437,896242.3589717784
7438,0.0
2,1, 1, 1, 0, 6, 0.00,60.00,Sunday
7592,-0.9796514462011
5408,18.0
7437,939951.186338136
7438,0.0
2,1, 1, 1, 0, 7, 0.00,60.00,Sunday
7592,-0.9820149192386057
5408,18.000000000000037
7437,979794.6481132257
7438,0.0
2,1, 1, 1, 0, 8, 0.00,60.00,Sunday
7592,-0.984174223157158
5408,17.999999999999998
7437,1008357.2508168405
7438,0.0
2,1, 1, 1, 0, 9, 0.00,60.00,Sunday
7592,-1.2481783616976803
5408,15.718960416593453
7437,0.0
7438,0.0
2,1, 1, 1, 0,10, 0.00,60.00,Sunday
7592,-1.47784869087697
5408,15.059519389130778
7437,0.0
7438,0.0
2,1, 1, 1, 0,11, 0.00,60.00,Sunday
7592,-1.5171336222106178
5408,15.062876422108915
7437,0.0
7438,0.0
2,1, 1, 1, 0,12, 0.00,60.00,Sunday
7592,-1.5313943940852966
5408,15.086490693911616
7437,0.0
7438,0.0
2,1, 1, 1, 0,13, 0.00,60.00,Sunday
7592,-1.3745949078642286
5408,16.651936200375553
7437,915547.428897197
7438,0.0
2,1, 1, 1, 0,14, 0.00,60.00,Sunday
7592,-1.050760452348171
5408,18.000000000265805
7437,936759.677441871
7438,0.0
2,1, 1, 1, 0,15, 0.00,60.00,Sunday
7592,-1.2471376923524969
5408,15.975883314791828
7437,0.0
7438,0.0
2,1, 1, 1, 0,16, 0.00,60.00,Sunday
7592,-1.4119003768934502
5408,15.504021687299306
7437,0.0
7438,0.0
2,1, 1, 1, 0,17, 0.00,60.00,Sunday
7592,-1.4129367409226337
5408,15.607868555424134
7437,0.0
7438,0.0
2,1, 1, 1, 0,18, 0.00,60.00,Sunday
7592,-1.3958935267261537
5408,15.704915568331613
7437,0.0
7438,0.0
2,1, 1, 1, 0,19, 0.00,60.00,Sunday
7592,-1.376532058439899
5408,15.766930729298459
7437,0.0
7438,0.0
2,1, 1, 1, 0,20, 0.00,60.00,Sunday
7592,-1.3678005191302448
5408,15.753609101029826
7437,0.0
7438,0.0
2,1, 1, 1, 0,21, 0.00,60.00,Sunday
7592,-1.384321300539092
5408,15.643930515476
7437,0.0
7438,0.0
2,1, 1, 1, 0,22, 0.00,60.00,Sunday
7592,-1.4185470341115326
5408,15.500890636973681
7437,0.0
7438,0.0
2,1, 1, 1, 0,23, 0.00,60.00,Sunday
7592,-1.0971102771872675
5408,18.110325975018879
7437,1060690.7457499668
7438,0.0
2,1, 1, 1, 0,24, 0.00,60.00,Sunday
7592,-1.0120331018397997
5408,18.000000000000005
7437,747125.443955722
7438,0.0
2,2, 1, 2, 0, 1, 0.00,60.00,Monday
7592,-1.0006618559641097
5408,17.99999999999999
7437,823485.0664163707
7438,0.0
2,2, 1, 2, 0, 2, 0.00,60.00,Monday
7592,-0.994818133598052
5408,17.999999999999994
7437,848311.9508017149
7438,0.0
2,2, 1, 2, 0, 3, 0.00,60.00,Monday
7592,-0.9928592441601994
5408,18.000000000000019
7437,862208.4165404085
7438,0.0
2,2, 1, 2, 0, 4, 0.00,60.00,Monday
7592,-0.991546840444442
5408,17.999999999999994
7437,873056.6130285224
7438,0.0
2,2, 1, 2, 0, 5, 0.00,60.00,Monday
7592,-0.990573389944234
5408,18.0
7437,885277.1312845164
7438,0.0
2,2, 1, 2, 0, 6, 0.00,60.00,Monday
7592,-0.9898437718479954
5408,17.999999999999998
7437,900146.7356626417
7438,0.0
2,2, 1, 2, 0, 7, 0.00,60.00,Monday
7592,-0.9892442722945658
5408,17.999999999999998
7437,911608.3677264575
7438,0.0
2,2, 1, 2, 0, 8, 0.00,60.00,Monday
7592,-0.9892467334280776
5408,17.999999999999994
7437,916584.4086679487
7438,0.0
2,2, 1, 2, 0, 9, 0.00,60.00,Monday
7592,-1.2340075448679607
5408,15.86857182337122
7437,0.0
7438,0.0
2,2, 1, 2, 0,10, 0.00,60.00,Monday
7592,-1.4455006637568043
5408,15.25492355686567
7437,0.0
7438,0.0
2,2, 1, 2, 0,11, 0.00,60.00,Monday
7592,-1.475415295027511
5408,15.274489712540563
7437,0.0
7438,0.0
2,2, 1, 2, 0,12, 0.00,60.00,Monday
7592,-1.4872016784444684
5408,15.295759647804099
7437,0.0
7438,0.0
2,2, 1, 2, 0,13, 0.00,60.00,Monday
7592,-1.341953305363929
5408,16.758200482038946
7437,796927.898942594
7438,0.0
2,2, 1, 2, 0,14, 0.00,60.00,Monday
7592,-1.0479776122517242
5408,18.000000009814629
7437,828490.2461591578
7438,0.0
2,2, 1, 2, 0,15, 0.00,60.00,Monday
7592,-1.2349734256490937
5408,16.086127620528463
7437,0.0
7438,0.0
2,2, 1, 2, 0,16, 0.00,60.00,Monday
7592,-1.4022685530845578
5408,15.563187821393746
7437,0.0
7438,0.0
2,2, 1, 2, 0,17, 0.00,60.00,Monday
7592,-1.4221618013963334
5408,15.548319935030895
7437,0.0
7438,0.0
2,2, 1, 2, 0,18, 0.00,60.00,Monday
7592,-1.440956644287678
5408,15.475609678417483
7437,0.0
7438,0.0
2,2, 1, 2, 0,19, 0.00,60.00,Monday
7592,-1.4621010090898346
5408,15.387206176535882
7437,0.0
7438,0.0
2,2, 1, 2, 0,20, 0.00,60.00,Monday
7592,-1.480457949902106
5408,15.310108487712798
7437,0.0
7438,0.0
2,2, 1, 2, 0,21, 0.00,60.00,Monday
7592,-1.4960286757859239
5408,15.252136193085536
7437,0.0
7438,0.0
2,2, 1, 2, 0,22, 0.00,60.00,Monday
7592,-1.503253383978354
5408,15.229195975234916
7437,0.0
7438,0.0
2,2, 1, 2, 0,23, 0.00,60.00,Monday
7592,-1.1255809908137014
5408,18.10395191964548
7437,1255727.5672167799
7438,0.0
2,2, 1, 2, 0,24, 0.00,60.00,Monday
7592,-1.01412625279721
5408,18.000000000000026
7437,851263.4050783387
7438,0.0
2,3, 1, 3, 0, 1, 0.00,60.00,Tuesday
7592,-0.996425844447688
5408,18.00000000000005
7437,922878.5152682833
7438,0.0
2,3, 1, 3, 0, 2, 0.00,60.00,Tuesday
7592,-0.98918972923123
5408,17.99999999999999
7437,966186.877801015
7438,0.0
2,3, 1, 3, 0, 3, 0.00,60.00,Tuesday
7592,-0.989050330703789
5408,17.999999999999994
7437,1012949.0206705849
7438,0.0
2,3, 1, 3, 0, 4, 0.00,60.00,Tuesday
7592,-0.9902521132441744
5408,18.000000000000033
7437,1043845.8805991247
7438,0.0
2,3, 1, 3, 0, 5, 0.00,60.00,Tuesday
7592,-0.9914196572427182
5408,17.99999999999999
7437,1056992.3550690467
7438,0.0
2,3, 1, 3, 0, 6, 0.00,60.00,Tuesday
7592,-0.9924738676138238
5408,18.000000000000058
7437,1058368.8789545985
7438,0.0
2,3, 1, 3, 0, 7, 0.00,60.00,Tuesday
7592,-0.9930984400957134
5408,18.000000000000015
7437,1043754.2126556665
7438,0.0
2,3, 1, 3, 0, 8, 0.00,60.00,Tuesday
7592,-0.9930944662440077
5408,18.000000000000015
7437,1023305.0409867393
7438,0.0
2,3, 1, 3, 0, 9, 0.00,60.00,Tuesday
7592,-1.2532498370661738
5408,15.747329378546367
7437,0.0
7438,0.0
2,3, 1, 3, 0,10, 0.00,60.00,Tuesday
7592,-1.485173819669038
5408,15.066585553001837
7437,0.0
7438,0.0
2,3, 1, 3, 0,11, 0.00,60.00,Tuesday
7592,-1.5312435981092699
5408,15.037533469639945
7437,0.0
7438,0.0
2,3, 1, 3, 0,12, 0.00,60.00,Tuesday
7592,-1.555514884215236
5408,15.011895842396335
7437,0.0
7438,0.0
2,3, 1, 3, 0,13, 0.00,60.00,Tuesday
7592,-1.4040530798720897
5408,16.592071692808518
7437,1002957.2042087338
7438,0.0
2,3, 1, 3, 0,14, 0.00,60.00,Tuesday
7592,-1.0669580842037506
5408,18.00000000066169
7437,1139480.652997564
7438,0.0
2,3, 1, 3, 0,15, 0.00,60.00,Tuesday
7592,-1.286418674331273
5408,15.740702147853979
7437,0.0
7438,0.0
2,3, 1, 3, 0,16, 0.00,60.00,Tuesday
7592,-1.5132706599653319
5408,15.019509014916573
7437,0.0
7438,0.0
2,3, 1, 3, 0,17, 0.00,60.00,Tuesday
7592,-1.5530641291194607
5408,14.984656844980636
7437,0.0
7438,0.0
2,3, 1, 3, 0,18, 0.00,60.00,Tuesday
7592,-1.5723967531123287
5408,14.948474494189185
7437,0.0
7438,0.0
2,3, 1, 3, 0,19, 0.00,60.00,Tuesday
7592,-1.5798810112828266
5408,14.936025979793428
7437,0.0
7438,0.0
2,3, 1, 3, 0,20, 0.00,60.00,Tuesday
7592,-1.580712977445584
5408,14.930318944622576
7437,0.0
7438,0.0
2,3, 1, 3, 0,21, 0.00,60.00,Tuesday
7592,-1.5806187129551566
5408,14.920942628924378
7437,0.0
7438,0.0
2,3, 1, 3, 0,22, 0.00,60.00,Tuesday
7592,-1.5796972748934016
5408,14.912328799703309
7437,0.0
7438,0.0
2,3, 1, 3, 0,23, 0.00,60.00,Tuesday
7592,-1.1572795704432835
5408,18.10380963634663
7437,1563502.4982922294
7438,0.0
2,3, 1, 3, 0,24, 0.00,60.00,Tuesday
7592,-1.0275884281434598
5408,18.00000000000001
7437,1062667.38199059
7438,0.0
2,4, 1, 4, 0, 1, 0.00,60.00,Wednesday
7592,-1.0044263743423865
5408,18.00000000000002
7437,1073477.9984123884
7438,0.0
2,4, 1, 4, 0, 2, 0.00,60.00,Wednesday
7592,-0.994824217904542
5408,17.999999999999984
7437,1059496.1698481576
7438,0.0
2,4, 1, 4, 0, 3, 0.00,60.00,Wednesday
7592,-0.9915964639568955
5408,18.00000000000004
7437,1052588.0280977106
7438,0.0
2,4, 1, 4, 0, 4, 0.00,60.00,Wednesday
7592,-0.9898189617881523
5408,18.00000000000004
7437,1049037.333252205
7438,0.0
2,4, 1, 4, 0, 5, 0.00,60.00,Wednesday
7592,-0.9882005042177182
5408,17.999999999999994
7437,1042873.5661634288
7438,0.0
2,4, 1, 4, 0, 6, 0.00,60.00,Wednesday
7592,-0.9866498232322801
5408,18.000000000000005
7437,1041191.7348924934
7438,0.0
2,4, 1, 4, 0, 7, 0.00,60.00,Wednesday
7592,-0.9853857057078052
5408,18.00000000000002
7437,1040249.7227238121
7438,0.0
2,4, 1, 4, 0, 8, 0.00,60.00,Wednesday
7592,-0.9848251576167407
5408,17.999999999999998
7437,1035629.0500256572
7438,0.0
2,4, 1, 4, 0, 9, 0.00,60.00,Wednesday
7592,-1.2468480000376239
5408,15.713855977068546
7437,0.0
7438,0.0
2,4, 1, 4, 0,10, 0.00,60.00,Wednesday
7592,-1.4852735972059393
5408,14.991449132585908
7437,0.0
7438,0.0
2,4, 1, 4, 0,11, 0.00,60.00,Wednesday
7592,-1.5331461122437198
5408,14.956313120750622
7437,0.0
7438,0.0
2,4, 1, 4, 0,12, 0.00,60.00,Wednesday
7592,-1.5611903894028736
5408,14.931851409568426
7437,0.0
7438,0.0
2,4, 1, 4, 0,13, 0.00,60.00,Wednesday
7592,-1.4075596768015153
5408,16.5636516112175
7437,1010844.1964426852
7438,0.0
2,4, 1, 4, 0,14, 0.00,60.00,Wednesday
7592,-1.0664965881999669
5408,18.00000001586645
7437,1159836.377813019
7438,0.0
2,4, 1, 4, 0,15, 0.00,60.00,Wednesday
7592,-1.289668097223865
5408,15.754108225026926
7437,0.0
7438,0.0
2,4, 1, 4, 0,16, 0.00,60.00,Wednesday
7592,-1.4952814131686916
5408,15.136701335769118
7437,0.0
7438,0.0
2,4, 1, 4, 0,17, 0.00,60.00,Wednesday
7592,-1.5257255360784335
5408,15.115765239236638
7437,0.0
7438,0.0
2,4, 1, 4, 0,18, 0.00,60.00,Wednesday
7592,-1.543565771688744
5408,15.065120008019539
7437,0.0
7438,0.0
2,4, 1, 4, 0,19, 0.00,60.00,Wednesday
7592,-1.5553870752660136
5408,15.01315773274178
7437,0.0
7438,0.0
2,4, 1, 4, 0,20, 0.00,60.00,Wednesday
7592,-1.5639982560121518
5408,14.962835209492676
7437,0.0
7438,0.0
2,4, 1, 4, 0,21, 0.00,60.00,Wednesday
7592,-1.5728222344738344
5408,14.917632643042415
7437,0.0
7438,0.0
2,4, 1, 4, 0,22, 0.00,60.00,Wednesday
7592,-1.5799322704837158
5408,14.887298173027745
7437,0.0
7438,0.0
2,4, 1, 4, 0,23, 0.00,60.00,Wednesday
7592,-1.1576060933458712
5408,18.10623220364141
7437,1578889.1549633153
7438,0.0
2,4, 1, 4, 0,24, 0.00,60.00,Wednesday
7592,-1.0294390292284066
5408,18.000000000000026
7437,1077422.36860085
7438,0.0
2,5, 1, 5, 0, 1, 0.00,60.00,Thursday
7592,-1.0091111678375653
5408,18.000000000000026
7437,1081158.8674155153
7438,0.0
2,5, 1, 5, 0, 2, 0.00,60.00,Thursday
7592,-1.0017900060268792
5408,17.99999999999999
7437,1057204.0817727554
7438,0.0
2,5, 1, 5, 0, 3, 0.00,60.00,Thursday
7592,-1.000496923611589
5408,17.999999999999976
7437,1047610.1187835278
7438,0.0
2,5, 1, 5, 0, 4, 0.00,60.00,Thursday
7592,-1.0016662554770096
5408,18.000000000000055
7437,1051039.0622605337
7438,0.0
2,5, 1, 5, 0, 5, 0.00,60.00,Thursday
7592,-1.0036110390183662
5408,18.000000000000015
7437,1059552.8997440153
7438,0.0
2,5, 1, 5, 0, 6, 0.00,60.00,Thursday
7592,-1.0050857783953154
5408,18.00000000000005
7437,1070264.1124811944
7438,0.0
2,5, 1, 5, 0, 7, 0.00,60.00,Thursday
7592,-1.00634470769085
5408,18.000000000000033
7437,1082217.1376419152
7438,0.0
2,5, 1, 5, 0, 8, 0.00,60.00,Thursday
7592,-1.0080071365425383
5408,17.999999999999994
7437,1090356.3827223725
7438,0.0
2,5, 1, 5, 0, 9, 0.00,60.00,Thursday
7592,-1.2755512931699074
5408,15.680292028050543
7437,0.0
7438,0.0
2,5, 1, 5, 0,10, 0.00,60.00,Thursday
7592,-1.5200683398649327
5408,14.949814287384712
7437,0.0
7438,0.0
2,5, 1, 5, 0,11, 0.00,60.00,Thursday
7592,-1.567140334016561
5408,14.919382526777687
7437,0.0
7438,0.0
2,5, 1, 5, 0,12, 0.00,60.00,Thursday
7592,-1.5912140347077236
5408,14.895208166510848
7437,0.0
7438,0.0
2,5, 1, 5, 0,13, 0.00,60.00,Thursday
7592,-1.4319803978173289
5408,16.541673234059937
7437,1048967.8792664973
7438,0.0
2,5, 1, 5, 0,14, 0.00,60.00,Thursday
7592,-1.0797338100269547
5408,18.00000001121853
7437,1221291.8520967484
7438,0.0
2,5, 1, 5, 0,15, 0.00,60.00,Thursday
7592,-1.298573675901031
5408,15.715784216663908
7437,0.0
7438,0.0
2,5, 1, 5, 0,16, 0.00,60.00,Thursday
7592,-1.5264324994190819
5408,14.993079810781433
7437,0.0
7438,0.0
2,5, 1, 5, 0,17, 0.00,60.00,Thursday
7592,-1.5630077430908705
5408,14.982856061506853
7437,0.0
7438,0.0
2,5, 1, 5, 0,18, 0.00,60.00,Thursday
7592,-1.5787222575369018
5408,14.975425101455544
7437,0.0
7438,0.0
2,5, 1, 5, 0,19, 0.00,60.00,Thursday
7592,-1.5849613477632565
5408,14.978554525181196
7437,0.0
7438,0.0
2,5, 1, 5, 0,20, 0.00,60.00,Thursday
7592,-1.5877094259550709
5408,14.975005490255973
7437,0.0
7438,0.0
2,5, 1, 5, 0,21, 0.00,60.00,Thursday
7592,-1.5935340174447746
5408,14.94681145226626
7437,0.0
7438,0.0
2,5, 1, 5, 0,22, 0.00,60.00,Thursday
7592,-1.6025402566466003
5408,14.9047826457788
7437,0.0
7438,0.0
2,5, 1, 5, 0,23, 0.00,60.00,Thursday
7592,-1.1810298115184022
5408,18.108321867746793
7437,1619516.626617103
7438,0.0
2,5, 1, 5, 0,24, 0.00,60.00,Thursday
7592,-1.048775954283126
5408,18.000000000000019
7437,1129199.4142567458
7438,0.0
2,6, 1, 6, 0, 1, 0.00,60.00,Friday
7592,-1.0217744124313804
5408,18.000000000000008
7437,1146172.3155965219
7438,0.0
2,6, 1, 6, 0, 2, 0.00,60.00,Friday
7592,-1.0093041180292924
5408,17.999999999999984
7437,1135534.440439225
7438,0.0
2,6, 1, 6, 0, 3, 0.00,60.00,Friday
7592,-1.0028216904943073
5408,18.00000000000001
7437,1122771.897698681
7438,0.0
2,6, 1, 6, 0, 4, 0.00,60.00,Friday
7592,-0.9986381487661172
5408,18.000000000000019
7437,1114401.0399921276
7438,0.0
2,6, 1, 6, 0, 5, 0.00,60.00,Friday
7592,-0.9953530465140235
5408,18.000000000000055
7437,1105972.9102940043
7438,0.0
2,6, 1, 6, 0, 6, 0.00,60.00,Friday
7592,-0.9926936029346917
5408,18.000000000000005
7437,1095040.182915009
7438,0.0
2,6, 1, 6, 0, 7, 0.00,60.00,Friday
7592,-0.991002921801697
5408,18.000000000000015
7437,1087297.1228053005
7438,0.0
2,6, 1, 6, 0, 8, 0.00,60.00,Friday
7592,-0.991232229004467
5408,18.000000000000019
7437,1083206.620257964
7438,0.0
2,6, 1, 6, 0, 9, 0.00,60.00,Friday
7592,-1.2556235886602572
5408,15.697359530614977
7437,0.0
7438,0.0
2,6, 1, 6, 0,10, 0.00,60.00,Friday
7592,-1.4885872957581379
5408,15.023856688684875
7437,0.0
7438,0.0
2,6, 1, 6, 0,11, 0.00,60.00,Friday
7592,-1.525531898904607
5408,15.057753959751457
7437,0.0
7438,0.0
2,6, 1, 6, 0,12, 0.00,60.00,Friday
7592,-1.539715804444005
5408,15.105453186479723
7437,0.0
7438,0.0
2,6, 1, 6, 0,13, 0.00,60.00,Friday
7592,-1.3834943474915065
5408,16.694472016450186
7437,910690.7872212374
7438,0.0
2,6, 1, 6, 0,14, 0.00,60.00,Friday
7592,-1.0669335435707615
5408,18.000000092900554
7437,904848.4357255151
7438,0.0
2,6, 1, 6, 0,15, 0.00,60.00,Friday
7592,-1.252762213056011
5408,16.121531091837779
7437,0.0
7438,0.0
2,6, 1, 6, 0,16, 0.00,60.00,Friday
7592,-1.418497948327426
5408,15.625701412855064
7437,0.0
7438,0.0
2,6, 1, 6, 0,17, 0.00,60.00,Friday
7592,-1.432139432694135
5408,15.641909150612899
7437,0.0
7438,0.0
2,6, 1, 6, 0,18, 0.00,60.00,Friday
7592,-1.443982009579667
5408,15.581914578157742
7437,0.0
7438,0.0
2,6, 1, 6, 0,19, 0.00,60.00,Friday
7592,-1.4563996894390832
5408,15.495581773441259
7437,0.0
7438,0.0
2,6, 1, 6, 0,20, 0.00,60.00,Friday
7592,-1.4672541757591827
5408,15.410965347806146
7437,0.0
7438,0.0
2,6, 1, 6, 0,21, 0.00,60.00,Friday
7592,-1.4804160018387543
5408,15.323338389631067
7437,0.0
7438,0.0
2,6, 1, 6, 0,22, 0.00,60.00,Friday
7592,-1.4924575385995216
5408,15.249474022314019
7437,0.0
7438,0.0
2,6, 1, 6, 0,23, 0.00,60.00,Friday
7592,-1.1221066652186794
5408,18.11572166870367
7437,1242086.6665457779
7438,0.0
2,6, 1, 6, 0,24, 0.00,60.00,Friday
7592,-1.015882403938458
5408,18.0
7437,871484.9620964873
7438,0.0
2,7, 1, 7, 0, 1, 0.00,60.00,Saturday
7592,-0.9973082444946891
5408,17.999999999999987
7437,917138.2818218139
7438,0.0
2,7, 1, 7, 0, 2, 0.00,60.00,Saturday
7592,-0.9888124564315519
5408,18.000000000000005
7437,932419.7347999683
7438,0.0
2,7, 1, 7, 0, 3, 0.00,60.00,Saturday
7592,-0.9866304667944665
5408,18.00000000000002
7437,964225.918774128
7438,0.0
2,7, 1, 7, 0, 4, 0.00,60.00,Saturday
7592,-0.9865712636508032
5408,18.000000000000008
7437,1011406.78244311
7438,0.0
2,7, 1, 7, 0, 5, 0.00,60.00,Saturday
7592,-0.9876839888594354
5408,18.00000000000006
7437,1071852.8131248942
7438,0.0
2,7, 1, 7, 0, 6, 0.00,60.00,Saturday
7592,-0.9894100148449585
5408,18.00000000000001
7437,1131542.3945646072
7438,0.0
2,7, 1, 7, 0, 7, 0.00,60.00,Saturday
7592,-0.9912592880525429
5408,18.0
7437,1181765.2920208369
7438,0.0
2,7, 1, 7, 0, 8, 0.00,60.00,Saturday
7592,-0.9928550284496273
5408,18.00000000000004
7437,1212486.977691168
7438,0.0
2,7, 1, 7, 0, 9, 0.00,60.00,Saturday
7592,-1.2818967605345729
5408,15.505729736289466
7437,0.0
7438,0.0
2,7, 1, 7, 0,10, 0.00,60.00,Saturday
7592,-1.5337421727897907
5408,14.802648910319647
7437,0.0
7438,0.0
2,7, 1, 7, 0,11, 0.00,60.00,Saturday
7592,-1.5770791917660175
5408,14.831965765450966
7437,0.0
7438,0.0
2,7, 1, 7, 0,12, 0.00,60.00,Saturday
7592,-1.589710174125316
5408,14.904383173406487
7437,0.0
7438,0.0
2,7, 1, 7, 0,13, 0.00,60.00,Saturday
7592,-1.4177931343818653
5408,16.597230406870634
7437,963024.5975045463
7438,0.0
2,7, 1, 7, 0,14, 0.00,60.00,Saturday
7592,-1.0776339879526152
5408,18.00000001698668
7437,945861.7307343946
7438,0.0
2,7, 1, 7, 0,15, 0.00,60.00,Saturday
7592,-1.2540981900310276
5408,16.14914541862645
7437,0.0
7438,0.0
2,7, 1, 7, 0,16, 0.00,60.00,Saturday
7592,-1.3892932944811146
5408,15.819244536469486
7437,0.0
7438,0.0
2,7, 1, 7, 0,17, 0.00,60.00,Saturday
7592,-1.3795376318462252
5408,15.920393704315073
7437,0.0
7438,0.0
2,7, 1, 7, 0,18, 0.00,60.00,Saturday
7592,-1.38854266876333
5408,15.88215849812793
7437,0.0
7438,0.0
2,7, 1, 7, 0,19, 0.00,60.00,Saturday
7592,-1.400339383725
5408,15.820492171843222
7437,0.0
7438,0.0
2,7, 1, 7, 0,20, 0.00,60.00,Saturday
7592,-1.4143294118777626
5408,15.742862985263095
7437,0.0
7438,0.0
2,7, 1, 7, 0,21, 0.00,60.00,Saturday
7592,-1.4285352948137098
5408,15.656670371787412
7437,0.0
7438,0.0
2,7, 1, 7, 0,22, 0.00,60.00,Saturday
7592,-1.4426213185794926
5408,15.573121315450118
7437,0.0
7438,0.0
2,7, 1, 7, 0,23, 0.00,60.00,Saturday
7592,-1.1123641850014668
5408,18.121663486507634
7437,1054215.8885880484
7438,0.0
2,7, 1, 7, 0,24, 0.00,60.00,Saturday
7592,-1.0235046008297244
5408,18.00000000000002
7437,660871.6775228964
7438,0.0
2,8, 1, 8, 0, 1, 0.00,60.00,Sunday
7592,-1.0080234813829472
5408,17.99999999999999
7437,727501.2165372844
7438,0.0
2,8, 1, 8, 0, 2, 0.00,60.00,Sunday
7592,-0.9976400175360957
5408,17.999999999999998
7437,742706.8004905048
7438,0.0
2,8, 1, 8, 0, 3, 0.00,60.00,Sunday
7592,-0.9924486404239826
5408,18.000000000000005
7437,758873.5755626998
7438,0.0
2,8, 1, 8, 0, 4, 0.00,60.00,Sunday
7592,-0.9893525421368064
5408,18.000000000000008
7437,778110.1671829394
7438,0.0
2,8, 1, 8, 0, 5, 0.00,60.00,Sunday
7592,-0.987175714497576
5408,18.00000000000001
7437,796542.0026363074
7438,0.0
2,8, 1, 8, 0, 6, 0.00,60.00,Sunday
7592,-0.985211739982715
5408,17.999999999999998
7437,813768.5325045993
7438,0.0
2,8, 1, 8, 0, 7, 0.00,60.00,Sunday
7592,-0.984333549055851
5408,18.00000000000001
7437,824433.1207317833
7438,0.0
2,8, 1, 8, 0, 8, 0.00,60.00,Sunday
7592,-0.9842861124359725
5408,18.000000000000005
7437,829854.6556934005
7438,0.0
2,8, 1, 8, 0, 9, 0.00,60.00,Sunday
7592,-1.2186360116893834
5408,15.948261760977673
7437,0.0
7438,0.0
2,8, 1, 8, 0,10, 0.00,60.00,Sunday
7592,-1.4249508539816914
5408,15.337978234635488
7437,0.0
7438,0.0
2,8, 1, 8, 0,11, 0.00,60.00,Sunday
7592,-1.4530551500853524
5408,15.382634003511186
7437,0.0
7438,0.0
2,8, 1, 8, 0,12, 0.00,60.00,Sunday
7592,-1.4594287641369277
5408,15.44099608470222
7437,0.0
7438,0.0
2,8, 1, 8, 0,13, 0.00,60.00,Sunday
7592,-1.3158499569418194
5408,16.85727501243866
7437,735494.2391048048
7438,0.0
2,8, 1, 8, 0,14, 0.00,60.00,Sunday
7592,-1.0457487846464442
5408,18.000000076018968
7437,638905.8448390378
7438,0.0
2,8, 1, 8, 0,15, 0.00,60.00,Sunday
7592,-1.2172251643497958
5408,16.28541182112026
7437,0.0
7438,0.0
2,8, 1, 8, 0,16, 0.00,60.00,Sunday
7592,-1.3693343305498669
5408,15.808382510598703
7437,0.0
7438,0.0
2,8, 1, 8, 0,17, 0.00,60.00,Sunday
7592,-1.385193847698923
5408,15.829998449591102
7437,0.0
7438,0.0
2,8, 1, 8, 0,18, 0.00,60.00,Sunday
7592,-1.3933900800116215
5408,15.816374911146575
7437,0.0
7438,0.0
2,8, 1, 8, 0,19, 0.00,60.00,Sunday
7592,-1.4013153424583174
5408,15.765275255603165
7437,0.0
7438,0.0
2,8, 1, 8, 0,20, 0.00,60.00,Sunday
7592,-1.4120192484991526
5408,15.702124378420687
7437,0.0
7438,0.0
2,8, 1, 8, 0,21, 0.00,60.00,Sunday
7592,-1.421240939712691
5408,15.650066486426667
7437,0.0
7438,0.0
2,8, 1, 8, 0,22, 0.00,60.00,Sunday
7592,-1.4253968168537484
5408,15.620474342648665
7437,0.0
7438,0.0
2,8, 1, 8, 0,23, 0.00,60.00,Sunday
7592,-1.0967511188791975
5408,18.114625324299863
7437,963571.3433941377
7438,0.0
2,8, 1, 8, 0,24, 0.00,60.00,Sunday
7592,-1.0094334083635895
5408,18.00000000000001
7437,577478.595053425
7438,0.0
2,9, 1, 9, 0, 1, 0.00,60.00,Monday
7592,-0.9941055137615859
5408,18.0
7437,660573.9084490253
7438,0.0
2,9, 1, 9, 0, 2, 0.00,60.00,Monday
7592,-0.9852462858340747
5408,18.000000000000026
7437,695708.1393203371
7438,0.0
2,9, 1, 9, 0, 3, 0.00,60.00,Monday
7592,-0.9806982994884286
5408,18.00000000000002
7437,714148.4071105184
7438,0.0
2,9, 1, 9, 0, 4, 0.00,60.00,Monday
7592,-0.9782643608499346
5408,18.000000000000015
7437,718043.5434043028
7438,0.0
2,9, 1, 9, 0, 5, 0.00,60.00,Monday
7592,-0.9765823111096391
5408,18.00000000000001
7437,720360.6431302736
7438,0.0
2,9, 1, 9, 0, 6, 0.00,60.00,Monday
7592,-0.9753982366047883
5408,18.00000000000001
7437,725247.7777144249
7438,0.0
2,9, 1, 9, 0, 7, 0.00,60.00,Monday
7592,-0.9752088155209302
5408,17.99999999999999
7437,731503.6472284986
7438,0.0
2,9, 1, 9, 0, 8, 0.00,60.00,Monday
7592,-0.9758945128925483
5408,18.000000000000005
7437,736614.4057739979
7438,0.0
2,9, 1, 9, 0, 9, 0.00,60.00,Monday
7592,-1.2006983371157552
5408,16.033154556908383
7437,0.0
7438,0.0
2,9, 1, 9, 0,10, 0.00,60.00,Monday
7592,-1.4011427514807454
5408,15.417797078113394
7437,0.0
7438,0.0
2,9, 1, 9, 0,11, 0.00,60.00,Monday
7592,-1.4365953319435215
5408,15.403376275819753
7437,0.0
7438,0.0
2,9, 1, 9, 0,12, 0.00,60.00,Monday
7592,-1.453767631364988
5408,15.394838425150083
7437,0.0
7438,0.0
2,9, 1, 9, 0,13, 0.00,60.00,Monday
7592,-1.3192481251796616
5408,16.79365992688694
7437,751268.7885618208
7438,0.0
2,9, 1, 9, 0,14, 0.00,60.00,Monday
7592,-1.0373633467457054
5408,18.000000009500796
7437,781073.8919849184
7438,0.0
2,9, 1, 9, 0,15, 0.00,60.00,Monday
7592,-1.2297199408114928
5408,16.06283039551694
7437,0.0
7438,0.0
2,9, 1, 9, 0,16, 0.00,60.00,Monday
7592,-1.4070250877076152
5408,15.49270637181533
7437,0.0
7438,0.0
2,9, 1, 9, 0,17, 0.00,60.00,Monday
7592,-1.4386980204073925
5408,15.45436778596057
7437,0.0
7438,0.0
2,9, 1, 9, 0,18, 0.00,60.00,Monday
7592,-1.4551207830735032
5408,15.42255080561985
7437,0.0
7438,0.0
2,9, 1, 9, 0,19, 0.00,60.00,Monday
7592,-1.462417077424389
5408,15.411385773568752
7437,0.0
7438,0.0
2,9, 1, 9, 0,20, 0.00,60.00,Monday
7592,-1.4652123903392467
5408,15.402253526234248
7437,0.0
7438,0.0
2,9, 1, 9, 0,21, 0.00,60.00,Monday
7592,-1.4688534984854783
5408,15.388092938170985
7437,0.0
7438,0.0
2,9, 1, 9, 0,22, 0.00,60.00,Monday
7592,-1.4722307846471419
5408,15.376757737217475
7437,0.0
7438,0.0
2,9, 1, 9, 0,23, 0.00,60.00,Monday
7592,-1.1169399625097552
5408,18.11018709333479
7437,1088762.0114708644
7438,0.0
2,9, 1, 9, 0,24, 0.00,60.00,Monday
7592,-1.0179795815205504
5408,18.000000000000005
7437,700002.7284390477
7438,0.0
2,10, 1,10, 0, 1, 0.00,60.00,Tuesday
7592,-1.0019868704873163
5408,18.000000000000005
7437,727216.8075349504
7438,0.0
2,10, 1,10, 0, 2, 0.00,60.00,Tuesday
7592,-0.9940016516630087
5408,18.000000000000033
7437,716674.9061230605
7438,0.0
2,10, 1,10, 0, 3, 0.00,60.00,Tuesday
7592,-0.990890238811655
5408,18.000000000000005
7437,710049.022705285
7438,0.0
2,10, 1,10, 0, 4, 0.00,60.00,Tuesday
7592,-0.9891268411537038
5408,18.000000000000026
7437,708091.2068027989
7438,0.0
2,10, 1,10, 0, 5, 0.00,60.00,Tuesday
7592,-0.987384396753868
5408,18.0
7437,707915.7054161746
7438,0.0
2,10, 1,10, 0, 6, 0.00,60.00,Tuesday
7592,-0.9858593668324328
5408,18.000000000000005
7437,714063.3030316802
7438,0.0
2,10, 1,10, 0, 7, 0.00,60.00,Tuesday
7592,-0.9847840645464746
5408,18.000000000000015
7437,720324.4691842162
7438,0.0
2,10, 1,10, 0, 8, 0.00,60.00,Tuesday
7592,-0.9846433369938662
5408,18.0
7437,721231.7235250054
7438,0.0
2,10, 1,10, 0, 9, 0.00,60.00,Tuesday
7592,-1.2125232671545934
5408,16.028233339475809
7437,0.0
7438,0.0
2,10, 1,10, 0,10, 0.00,60.00,Tuesday
7592,-1.4046977973355155
5408,15.443533007318266
7437,0.0
7438,0.0
2,10, 1,10, 0,11, 0.00,60.00,Tuesday
7592,-1.4433844130784595
5408,15.418271803541245
7437,0.0
7438,0.0
2,10, 1,10, 0,12, 0.00,60.00,Tuesday
7592,-1.4609524664587837
5408,15.429149296147694
7437,0.0
7438,0.0
2,10, 1,10, 0,13, 0.00,60.00,Tuesday
7592,-1.324944943759961
5408,16.836280711479679
7437,762005.352843788
7438,0.0
2,10, 1,10, 0,14, 0.00,60.00,Tuesday
7592,-1.0507015419355153
5408,18.000000077120494
7437,688537.375087726
7438,0.0
2,10, 1,10, 0,15, 0.00,60.00,Tuesday
7592,-1.2201605852879725
5408,16.282318692762308
7437,0.0
7438,0.0
2,10, 1,10, 0,16, 0.00,60.00,Tuesday
7592,-1.359734179984011
5408,15.859496778468495
7437,0.0
7438,0.0
2,10, 1,10, 0,17, 0.00,60.00,Tuesday
7592,-1.364001319201056
5408,15.880419125026032
7437,0.0
7438,0.0
2,10, 1,10, 0,18, 0.00,60.00,Tuesday
7592,-1.3767374393105499
5408,15.806904501726896
7437,0.0
7438,0.0
2,10, 1,10, 0,19, 0.00,60.00,Tuesday
7592,-1.394944307578659
5408,15.7033605252607
7437,0.0
7438,0.0
2,10, 1,10, 0,20, 0.00,60.00,Tuesday
7592,-1.41261237618626
5408,15.613803349689923
7437,0.0
7438,0.0
2,10, 1,10, 0,21, 0.00,60.00,Tuesday
7592,-1.425169919467539
5408,15.553574474839083
7437,0.0
7438,0.0
2,10, 1,10, 0,22, 0.00,60.00,Tuesday
7592,-1.4294401354795908
5408,15.532388421858448
7437,0.0
7438,0.0
2,10, 1,10, 0,23, 0.00,60.00,Tuesday
7592,-1.090466435041534
5408,18.11812706195475
7437,1008789.0773854051
7438,0.0
2,10, 1,10, 0,24, 0.00,60.00,Tuesday
7592,-0.999596016854562
5408,18.00000000000001
7437,628742.0920068025
7438,0.0
2,11, 1,11, 0, 1, 0.00,60.00,Wednesday
7592,-0.9864381607959074
5408,18.000000000000019
7437,719879.3117476828
7438,0.0
2,11, 1,11, 0, 2, 0.00,60.00,Wednesday
7592,-0.9816606092547054
5408,17.99999999999999
7437,770966.1491543943
7438,0.0
2,11, 1,11, 0, 3, 0.00,60.00,Wednesday
7592,-0.981449175161452
5408,18.000000000000015
7437,801963.9107913786
7438,0.0
2,11, 1,11, 0, 4, 0.00,60.00,Wednesday
7592,-0.9816438510114423
5408,18.000000000000026
7437,816388.4964174132
7438,0.0
2,11, 1,11, 0, 5, 0.00,60.00,Wednesday
7592,-0.9814927127467393
5408,18.00000000000003
7437,831843.5396615743
7438,0.0
2,11, 1,11, 0, 6, 0.00,60.00,Wednesday
7592,-0.9825355241144664
5408,18.000000000000015
7437,853726.737192525
7438,0.0
2,11, 1,11, 0, 7, 0.00,60.00,Wednesday
7592,-0.9842025015990031
5408,18.000000000000008
7437,875433.9212724636
7438,0.0
2,11, 1,11, 0, 8, 0.00,60.00,Wednesday
7592,-0.9854436823131411
5408,18.000000000000026
7437,872745.0899588214
7438,0.0
2,11, 1,11, 0, 9, 0.00,60.00,Wednesday
7592,-1.220936641647336
5408,15.951756329869364
7437,0.0
7438,0.0
2,11, 1,11, 0,10, 0.00,60.00,Wednesday
7592,-1.4209518019808994
5408,15.317434248087566
7437,0.0
7438,0.0
2,11, 1,11, 0,11, 0.00,60.00,Wednesday
7592,-1.4565665664666987
5408,15.320789841482098
7437,0.0
7438,0.0
2,11, 1,11, 0,12, 0.00,60.00,Wednesday
7592,-1.4709833263988735
5408,15.317791877629267
7437,0.0
7438,0.0
2,11, 1,11, 0,13, 0.00,60.00,Wednesday
7592,-1.3315588953564224
5408,16.754978703842686
7437,788820.7277907108
7438,0.0
2,11, 1,11, 0,14, 0.00,60.00,Wednesday
7592,-1.039965889138337
5408,18.000000007258256
7437,854193.8750098704
7438,0.0
2,11, 1,11, 0,15, 0.00,60.00,Wednesday
7592,-1.2403871034516867
5408,15.978231850694558
7437,0.0
7438,0.0
2,11, 1,11, 0,16, 0.00,60.00,Wednesday
7592,-1.4273500419995129
5408,15.379417225427702
7437,0.0
7438,0.0
2,11, 1,11, 0,17, 0.00,60.00,Wednesday
7592,-1.460442102098586
5408,15.34463887073735
7437,0.0
7438,0.0
2,11, 1,11, 0,18, 0.00,60.00,Wednesday
7592,-1.4759508755726583
5408,15.32014796268424
7437,0.0
7438,0.0
2,11, 1,11, 0,19, 0.00,60.00,Wednesday
7592,-1.4818701237639119
5408,15.316625819799548
7437,0.0
7438,0.0
2,11, 1,11, 0,20, 0.00,60.00,Wednesday
7592,-1.4832018641658762
5408,15.325538059563903
7437,0.0
7438,0.0
2,11, 1,11, 0,21, 0.00,60.00,Wednesday
7592,-1.4828888389480562
5408,15.334060122739217
7437,0.0
7438,0.0
2,11, 1,11, 0,22, 0.00,60.00,Wednesday
7592,-1.4830548125544628
5408,15.339618884293416
7437,0.0
7438,0.0
2,11, 1,11, 0,23, 0.00,60.00,Wednesday
7592,-1.1226361343861469
5408,18.114436964483465
7437,1111047.0058106848
7438,0.0
2,11, 1,11, 0,24, 0.00,60.00,Wednesday
7592,-1.02380223932671
5408,18.000000000000005
7437,722963.8642219999
7438,0.0
2,12, 1,12, 0, 1, 0.00,60.00,Thursday
7592,-1.0095204531343452
5408,18.000000000000005
7437,752175.1460320347
7438,0.0