Program Version,EnergyPlus, Version 8.7.0-78a111df4a, YMD=2019.05.28 05:48
1,5,Environment Title[],Latitude[deg],Longitude[deg],Time Zone[],Elevation[m]
2,6,Day of Simulation[],Month[],Day of Month[],DST Indicator[1=yes 0=no],Hour[],StartMinute[],EndMinute[],DayType
3,3,Cumulative Day of Simulation[],Month[],Day of Month[],DST Indicator[1=yes 0=no],DayType  ! When Daily Report Variables Requested
4,2,Cumulative Days of Simulation[],Month[]  ! When Monthly Report Variables Requested
5,1,Cumulative Days of Simulation[] ! When Run Period Report Variables Requested
4826,1,BEDROOM2.2,Zone Ideal Loads Zone Total Heating Energy [J] !Hourly
4827,1,BEDROOM2.2,Zone Ideal Loads Zone Total Cooling Energy [J] !Hourly
4973,1,BEDROOM2.2,Zone Thermal Comfort Fanger Model PMV [] !Hourly
End of Data Dictionary
1,RUNPERIOD,  29.58, 106.47,   8.00, 259.10
2,1, 1, 1, 0, 1, 0.00,60.00,Thursday
4973,-1.0533999239315617
4826,2242985.25423856
4827,6.608574536089278e-8
2,1, 1, 1, 0, 2, 0.00,60.00,Thursday
4973,-1.0461769181982673
4826,2254886.116165966
4827,8.164988685166463e-8
2,1, 1, 1, 0, 3, 0.00,60.00,Thursday
4973,-1.0386398415407135
4826,2193677.2603212685
4827,3.980176188633777e-8
2,1, 1, 1, 0, 4, 0.00,60.00,Thursday
4973,-1.0323004660666464
4826,2163616.137826547
4827,1.0446683518239297e-7
2,1, 1, 1, 0, 5, 0.00,60.00,Thursday
4973,-1.0290813059103253
4826,2181881.665795744
4827,7.837570592528209e-8
2,1, 1, 1, 0, 6, 0.00,60.00,Thursday
4973,-1.0289386968802195
4826,2205240.1335040337
4827,5.5558757594553757e-8
2,1, 1, 1, 0, 7, 0.00,60.00,Thursday
4973,-1.0308560218746164
4826,2223387.3083200829
4827,8.574261300964281e-8
2,1, 1, 1, 0, 8, 0.00,60.00,Thursday
4973,-1.6410594700556823
4826,0.0
4827,0.0
2,1, 1, 1, 0, 9, 0.00,60.00,Thursday
4973,-2.0215144942337668
4826,0.0
4827,0.0
2,1, 1, 1, 0,10, 0.00,60.00,Thursday
4973,-2.0579193027712279
4826,0.0
4827,0.0
2,1, 1, 1, 0,11, 0.00,60.00,Thursday
4973,-2.062629012055941
4826,0.0
4827,0.0
2,1, 1, 1, 0,12, 0.00,60.00,Thursday
4973,-2.056522116092335
4826,0.0
4827,0.0
2,1, 1, 1, 0,13, 0.00,60.00,Thursday
4973,-2.037695088560746
4826,0.0
4827,0.0
2,1, 1, 1, 0,14, 0.00,60.00,Thursday
4973,-2.0011342621901004
4826,0.0
4827,0.0
2,1, 1, 1, 0,15, 0.00,60.00,Thursday
4973,-1.955181985761386
4826,0.0
4827,0.0
2,1, 1, 1, 0,16, 0.00,60.00,Thursday
4973,-1.896392573508159
4826,0.0
4827,0.0
2,1, 1, 1, 0,17, 0.00,60.00,Thursday
4973,-1.8293734306990309
4826,0.0
4827,0.0
2,1, 1, 1, 0,18, 0.00,60.00,Thursday
4973,-1.77170519657717
4826,0.0
4827,0.0
2,1, 1, 1, 0,19, 0.00,60.00,Thursday
4973,-1.725843815762634
4826,0.0
4827,0.0
2,1, 1, 1, 0,20, 0.00,60.00,Thursday
4973,-1.6996672043935437
4826,0.0
4827,0.0
2,1, 1, 1, 0,21, 0.00,60.00,Thursday
4973,-1.7393556059004687
4826,0.0
4827,0.0
2,1, 1, 1, 0,22, 0.00,60.00,Thursday
4973,-1.2381973916037675
4826,2845255.408364957
4827,7.320863915083464e-8
2,1, 1, 1, 0,23, 0.00,60.00,Thursday
4973,-1.0626826153010603
4826,2122756.39067745
4827,7.888729669502936e-8
2,1, 1, 1, 0,24, 0.00,60.00,Thursday
4973,-1.0588941898338585
4826,2025387.5441327552
4827,5.2796167437918487e-8
2,2, 1, 2, 0, 1, 0.00,60.00,Friday
4973,-1.0566947186207659
4826,2220037.1130154815
4827,7.625244920332493e-8
2,2, 1, 2, 0, 2, 0.00,60.00,Friday
4973,-1.0550275859929226
4826,2220045.6962219926
4827,4.1745806811377409e-8
2,2, 1, 2, 0, 3, 0.00,60.00,Friday
4973,-1.0540410447156932
4826,2224368.44909482
4827,5.65819391340483e-8
2,2, 1, 2, 0, 4, 0.00,60.00,Friday
4973,-1.050913512056005
4826,2220314.2746057838
4827,3.9187852962641048e-8
2,2, 1, 2, 0, 5, 0.00,60.00,Friday
4973,-1.0468960343815753
4826,2208846.5844234267
4827,1.0487610779819079e-7
2,2, 1, 2, 0, 6, 0.00,60.00,Friday
4973,-1.0428050369938014
4826,2200791.334136783
4827,7.100879884092137e-8
2,2, 1, 2, 0, 7, 0.00,60.00,Friday
4973,-1.038805221381878
4826,2188525.625068021
4827,9.11654751689639e-8
2,2, 1, 2, 0, 8, 0.00,60.00,Friday
4973,-1.6100821784708195
4826,0.0
4827,0.0
2,2, 1, 2, 0, 9, 0.00,60.00,Friday
4973,-1.9329179483879493
4826,0.0
4827,0.0
2,2, 1, 2, 0,10, 0.00,60.00,Friday
4973,-1.9220230109838228
4826,0.0
4827,0.0
2,2, 1, 2, 0,11, 0.00,60.00,Friday
4973,-1.9034020442945708
4826,0.0
4827,0.0
2,2, 1, 2, 0,12, 0.00,60.00,Friday
4973,-1.889132424933846
4826,0.0
4827,0.0
2,2, 1, 2, 0,13, 0.00,60.00,Friday
4973,-1.873611600620893
4826,0.0
4827,0.0
2,2, 1, 2, 0,14, 0.00,60.00,Friday
4973,-1.8576664768370184
4826,0.0
4827,0.0
2,2, 1, 2, 0,15, 0.00,60.00,Friday
4973,-1.8307041495866275
4826,0.0
4827,0.0
2,2, 1, 2, 0,16, 0.00,60.00,Friday
4973,-1.7964243983889164
4826,0.0
4827,0.0
2,2, 1, 2, 0,17, 0.00,60.00,Friday
4973,-1.7759002845560644
4826,0.0
4827,0.0
2,2, 1, 2, 0,18, 0.00,60.00,Friday
4973,-1.7990060082245363
4826,0.0
4827,0.0
2,2, 1, 2, 0,19, 0.00,60.00,Friday
4973,-1.8416017996916306
4826,0.0
4827,0.0
2,2, 1, 2, 0,20, 0.00,60.00,Friday
4973,-1.8679414597966986
4826,0.0
4827,0.0
2,2, 1, 2, 0,21, 0.00,60.00,Friday
4973,-1.8955562515240832
4826,0.0
4827,0.0
2,2, 1, 2, 0,22, 0.00,60.00,Friday
4973,-1.287004626981183
4826,3124719.4044803737
4827,7.698758963670116e-8
2,2, 1, 2, 0,23, 0.00,60.00,Friday
4973,-1.071618879679729
4826,2161394.3476953788
4827,1.0436451702844352e-8
2,2, 1, 2, 0,24, 0.00,60.00,Friday
4973,-1.0546312224786326
4826,2049181.8084693866
4827,6.261871021706611e-8
2,3, 1, 3, 0, 1, 0.00,60.00,Saturday
4973,-1.0476304801237225
4826,2255672.1653258439
4827,4.253861747697969e-8
2,3, 1, 3, 0, 2, 0.00,60.00,Saturday
4973,-1.0452847604807896
4826,2289887.750006096
4827,4.998241820430849e-8
2,3, 1, 3, 0, 3, 0.00,60.00,Saturday
4973,-1.0476027132444124
4826,2303103.2925168948
4827,6.722302714479156e-8
2,3, 1, 3, 0, 4, 0.00,60.00,Saturday
4973,-1.0494402575008138
4826,2301099.916694445
4827,1.0538769856793806e-8
2,3, 1, 3, 0, 5, 0.00,60.00,Saturday
4973,-1.0495358011414236
4826,2288212.797183393
4827,1.0968506103381515e-7
2,3, 1, 3, 0, 6, 0.00,60.00,Saturday
4973,-1.0480359911017905
4826,2260481.346070368
4827,5.504716682480648e-8
2,3, 1, 3, 0, 7, 0.00,60.00,Saturday
4973,-1.0445988179274877
4826,2214034.190813303
4827,1.1357315088389442e-8
2,3, 1, 3, 0, 8, 0.00,60.00,Saturday
4973,-1.0392484545426406
4826,2163142.1742756969
4827,6.875438884890173e-8
2,3, 1, 3, 0, 9, 0.00,60.00,Saturday
4973,-1.0346700023725446
4826,2164722.0996055884
4827,5.3512394515564668e-8
2,3, 1, 3, 0,10, 0.00,60.00,Saturday
4973,-1.0297446984176862
4826,2111501.377602027
4827,5.474021236295812e-8
2,3, 1, 3, 0,11, 0.00,60.00,Saturday
4973,-1.0256271441169116
4826,2118456.4349791186
4827,1.084572431864217e-8
2,3, 1, 3, 0,12, 0.00,60.00,Saturday
4973,-1.0223116761825702
4826,2073355.237308932
4827,3.9187852962641048e-8
2,3, 1, 3, 0,13, 0.00,60.00,Saturday
4973,-1.0183929968170998
4826,2032447.0752350665
4827,2.291926648467779e-8
2,3, 1, 3, 0,14, 0.00,60.00,Saturday
4973,-1.0143189851567179
4826,1995325.1735959503
4827,4.829416866414249e-8
2,3, 1, 3, 0,15, 0.00,60.00,Saturday
4973,-1.0095233448979418
4826,1926810.365889039
4827,0.0
2,3, 1, 3, 0,16, 0.00,60.00,Saturday
4973,-1.0031862747109095
4826,1908659.9420640395
4827,4.3996806198265406e-8
2,3, 1, 3, 0,17, 0.00,60.00,Saturday
4973,-0.9983546247687014
4826,1938095.319195868
4827,8.697043085703626e-8
2,3, 1, 3, 0,18, 0.00,60.00,Saturday
4973,-0.9941179292937419
4826,1921319.1934866966
4827,6.71207089908421e-8
2,3, 1, 3, 0,19, 0.00,60.00,Saturday
4973,-0.9878257355744159
4826,1888949.711223863
4827,2.128217602148652e-8
2,3, 1, 3, 0,20, 0.00,60.00,Saturday
4973,-0.980788130444818
4826,1748280.4197147168
4827,5.957474513706984e-8
2,3, 1, 3, 0,21, 0.00,60.00,Saturday
4973,-0.9730351558378509
4826,1678478.2924269445
4827,7.065068530209828e-8
2,3, 1, 3, 0,22, 0.00,60.00,Saturday
4973,-0.9651584700415784
4826,1652341.2728713533
4827,2.3277380023500883e-8
2,3, 1, 3, 0,23, 0.00,60.00,Saturday
4973,-0.9589692138522286
4826,1640746.856359999
4827,5.7553961596568118e-8
2,3, 1, 3, 0,24, 0.00,60.00,Saturday
4973,-0.9530230494837071
4826,1575029.0288273856
4827,4.5071146814734678e-8
2,4, 1, 4, 0, 1, 0.00,60.00,Sunday
4973,-0.9495576584428978
4826,1712067.7958833962
4827,5.864314793618632
2,4, 1, 4, 0, 2, 0.00,60.00,Sunday
4973,-0.945392746284748
4826,1713135.1147566026
4827,7.4641093306127e-8
2,4, 1, 4, 0, 3, 0.00,60.00,Sunday
4973,-0.9423649320956125
4826,1695159.6858873589
4827,6.604636837437283e-8
2,4, 1, 4, 0, 4, 0.00,60.00,Sunday
4973,-0.9393210138871225
4826,1682595.7440529643
4827,2.696083356568124e-8
2,4, 1, 4, 0, 5, 0.00,60.00,Sunday
4973,-0.9359036499098133
4826,1673995.7375550739
4827,8.113829608191736e-8
2,4, 1, 4, 0, 6, 0.00,60.00,Sunday
4973,-0.9322724607533652
4826,1669958.4539213128
4827,4.440607881406322e-8
2,4, 1, 4, 0, 7, 0.00,60.00,Sunday
4973,-0.9290823984911962
4826,1664695.4542891458
4827,5.888409759791102e-8
2,4, 1, 4, 0, 8, 0.00,60.00,Sunday
4973,-0.9264948455956878
4826,1654004.5273926289
4827,8.426241038250737e-8
2,4, 1, 4, 0, 9, 0.00,60.00,Sunday
4973,-0.9259204234859733
4826,1693116.7347432783
4827,9.203517947753426e-8
2,4, 1, 4, 0,10, 0.00,60.00,Sunday
4973,-0.9257197881575638
4826,1665213.4784851433
4827,2.476099325576797e-8
2,4, 1, 4, 0,11, 0.00,60.00,Sunday
4973,-0.9257675508631226
4826,1693778.4652536966
4827,6.374420991051011e-8
2,4, 1, 4, 0,12, 0.00,60.00,Sunday
4973,-0.9278708180963635
4826,1659451.0093837204
4827,4.7066350816749039e-8
2,4, 1, 4, 0,13, 0.00,60.00,Sunday
4973,-0.9284972007079199
4826,1616509.4277996743
4827,2.8393287720973605e-8
2,4, 1, 4, 0,14, 0.00,60.00,Sunday
4973,-0.9284821599644405
4826,1561062.0944896015
4827,2.42494024860207e-8
2,4, 1, 4, 0,15, 0.00,60.00,Sunday
4973,-0.9253785647077999
4826,1453751.4007669206
4827,2.9621105568367058e-8
2,4, 1, 4, 0,16, 0.00,60.00,Sunday
4973,-0.917530314852495
4826,1401275.2835553317
4827,3.243485480197705e-8
2,4, 1, 4, 0,17, 0.00,60.00,Sunday
4973,-0.9096087831703684
4826,1436430.9616262636
4827,4.445723789103795e-8
2,4, 1, 4, 0,18, 0.00,60.00,Sunday
4973,-0.9056867756265536
4826,1449601.283118447
4827,3.2588332032901238e-8
2,4, 1, 4, 0,19, 0.00,60.00,Sunday
4973,-0.9023040041109806
4826,1464397.2236541236
4827,8.0831341620069e-8
2,4, 1, 4, 0,20, 0.00,60.00,Sunday
4973,-0.8987216024031708
4826,1369269.496291097
4827,3.7908876038272868e-8
2,4, 1, 4, 0,21, 0.00,60.00,Sunday
4973,-0.8967931506548282
4826,1337456.4752460579
4827,3.1309355108533057e-8
2,4, 1, 4, 0,22, 0.00,60.00,Sunday
4973,-0.8949515440415126
4826,1334993.0251145513
4827,2.404476617812179e-9
2,4, 1, 4, 0,23, 0.00,60.00,Sunday
4973,-0.8929965167710731
4826,1331598.7131234606
4827,4.7270987124647948e-8
2,4, 1, 4, 0,24, 0.00,60.00,Sunday
4973,-0.890878684611504
4826,1266915.4126380478
4827,7.38737071515061e-8
2,5, 1, 5, 0, 1, 0.00,60.00,Monday
4973,-0.8910581398470034
4826,1401152.4412271733
4827,0.5302404323265364
2,5, 1, 5, 0, 2, 0.00,60.00,Monday
4973,-0.8902746277764946
4826,1396926.8046841438
4827,7.065068530209828e-8
2,5, 1, 5, 0, 3, 0.00,60.00,Monday
4973,-0.8905154272104682
4826,1412413.2373869443
4827,4.445723789103795e-8
2,5, 1, 5, 0, 4, 0.00,60.00,Monday
4973,-0.8925413429874588
4826,1430779.9976730538
4827,5.310312189976685e-8
2,5, 1, 5, 0, 5, 0.00,60.00,Monday
4973,-0.8957290455183553
4826,1443185.6691894809
4827,1.6370904631912709e-9
2,5, 1, 5, 0, 6, 0.00,60.00,Monday
4973,-0.8985733082887727
4826,1456868.475445649
4827,4.972662281943485e-8
2,5, 1, 5, 0, 7, 0.00,60.00,Monday
4973,-0.901204649109158
4826,1471134.4596440886
4827,1.5347723092418165e-10
2,5, 1, 5, 0, 8, 0.00,60.00,Monday
4973,-1.3988623764980422
4826,0.0
4827,0.0
2,5, 1, 5, 0, 9, 0.00,60.00,Monday
4973,-1.6698958334292025
4826,0.0
4827,0.0
2,5, 1, 5, 0,10, 0.00,60.00,Monday
4973,-1.689917738005371
4826,0.0
4827,0.0
2,5, 1, 5, 0,11, 0.00,60.00,Monday
4973,-1.7002635223494378
4826,0.0
4827,0.0
2,5, 1, 5, 0,12, 0.00,60.00,Monday
4973,-1.7079213762980606
4826,0.0
4827,0.0
2,5, 1, 5, 0,13, 0.00,60.00,Monday
4973,-1.710868994334671
4826,0.0
4827,0.0
2,5, 1, 5, 0,14, 0.00,60.00,Monday
4973,-1.7067758614044609
4826,0.0
4827,0.0
2,5, 1, 5, 0,15, 0.00,60.00,Monday
4973,-1.7007306510044885
4826,0.0
4827,0.0
2,5, 1, 5, 0,16, 0.00,60.00,Monday
4973,-1.6930047187865443
4826,0.0
4827,0.0
2,5, 1, 5, 0,17, 0.00,60.00,Monday
4973,-1.6900197733748617
4826,0.0
4827,0.0
2,5, 1, 5, 0,18, 0.00,60.00,Monday
4973,-1.6890087236583807
4826,0.0
4827,0.0
2,5, 1, 5, 0,19, 0.00,60.00,Monday
4973,-1.6908682151897574
4826,0.0
4827,0.0
2,5, 1, 5, 0,20, 0.00,60.00,Monday
4973,-1.6836366489535697
4826,0.0
4827,0.0
2,5, 1, 5, 0,21, 0.00,60.00,Monday
4973,-1.698196502342779
4826,0.0
4827,0.0
2,5, 1, 5, 0,22, 0.00,60.00,Monday
4973,-1.180210841784036
4826,2512609.3767888436
4827,2.004753696382977e-8
2,5, 1, 5, 0,23, 0.00,60.00,Monday
4973,-0.9994370173858254
4826,1704964.2075482375
4827,4.118305696465541e-8
2,5, 1, 5, 0,24, 0.00,60.00,Monday
4973,-0.9879549567297278
4826,1598730.6447672914
4827,2.737010618147906e-8
2,6, 1, 6, 0, 1, 0.00,60.00,Tuesday
4973,-0.9792721725956345
4826,1787913.123379734
4827,5.22904597134584
2,6, 1, 6, 0, 2, 0.00,60.00,Tuesday
4973,-0.9721538851124574
4826,1788509.0344851646
4827,4.6196646508178676e-8
2,6, 1, 6, 0, 3, 0.00,60.00,Tuesday
4973,-0.9645768746725409
4826,1747250.9482100427
4827,2.6858515411731788e-8
2,6, 1, 6, 0, 4, 0.00,60.00,Tuesday
4973,-0.957378169984022
4826,1718959.748940682
4827,3.744844434550032e-8
2,6, 1, 6, 0, 5, 0.00,60.00,Tuesday
4973,-0.950717529367009
4826,1707021.7633539695
4827,9.525820132694207e-8
2,6, 1, 6, 0, 6, 0.00,60.00,Tuesday
4973,-0.9445390637739403
4826,1691692.447183085
4827,7.423182069032919e-8
2,6, 1, 6, 0, 7, 0.00,60.00,Tuesday
4973,-0.9394008341474098
4826,1678259.8812039237
4827,4.62478055851534e-8
2,6, 1, 6, 0, 8, 0.00,60.00,Tuesday
4973,-1.436704167549321
4826,0.0
4827,0.0
2,6, 1, 6, 0, 9, 0.00,60.00,Tuesday
4973,-1.7160022046139465
4826,0.0
4827,0.0
2,6, 1, 6, 0,10, 0.00,60.00,Tuesday
4973,-1.7066819306798416
4826,0.0
4827,0.0
2,6, 1, 6, 0,11, 0.00,60.00,Tuesday
4973,-1.692615521704152
4826,0.0
4827,0.0
2,6, 1, 6, 0,12, 0.00,60.00,Tuesday
4973,-1.6751003366045874
4826,0.0
4827,0.0
2,6, 1, 6, 0,13, 0.00,60.00,Tuesday
4973,-1.647325433457927
4826,0.0
4827,0.0
2,6, 1, 6, 0,14, 0.00,60.00,Tuesday
4973,-1.603556774483852
4826,0.0
4827,0.0
2,6, 1, 6, 0,15, 0.00,60.00,Tuesday
4973,-1.5602647864075512
4826,0.0
4827,0.0
2,6, 1, 6, 0,16, 0.00,60.00,Tuesday
4973,-1.5066309298873369
4826,0.0
4827,0.0
2,6, 1, 6, 0,17, 0.00,60.00,Tuesday
4973,-1.4716911159014326
4826,0.0
4827,0.0
2,6, 1, 6, 0,18, 0.00,60.00,Tuesday
4973,-1.4856527909990978
4826,0.0
4827,0.0
2,6, 1, 6, 0,19, 0.00,60.00,Tuesday
4973,-1.5192649712709075
4826,0.0
4827,0.0
2,6, 1, 6, 0,20, 0.00,60.00,Tuesday
4973,-1.5397280778952694
4826,0.0
4827,0.0
2,6, 1, 6, 0,21, 0.00,60.00,Tuesday
4973,-1.5710685731259793
4826,0.0
4827,0.0
2,6, 1, 6, 0,22, 0.00,60.00,Tuesday
4973,-1.1159670640393092
4826,2248619.441921239
4827,3.073978405154776e-8
2,6, 1, 6, 0,23, 0.00,60.00,Tuesday
4973,-0.9574854239978017
4826,1573000.464485879
4827,2.5579538487363608e-8
2,6, 1, 6, 0,24, 0.00,60.00,Tuesday
4973,-0.948038245513977
4826,1482076.1440123034
4827,1.9952040020143614e-8
2,7, 1, 7, 0, 1, 0.00,60.00,Wednesday
4973,-0.9440549478153024
4826,1683521.8542363016
4827,4.284938118611795e-8
2,7, 1, 7, 0, 2, 0.00,60.00,Wednesday
4973,-0.9422301957941293
4826,1703347.1996932429
4827,2.844444679794833e-8
2,7, 1, 7, 0, 3, 0.00,60.00,Wednesday
4973,-0.9424905876697859
4826,1736998.4145669137
4827,2.0463630789890887e-8
2,7, 1, 7, 0, 4, 0.00,60.00,Wednesday
4973,-0.9445149722851558
4826,1786590.593724484
4827,5.448441697808448e-8
2,7, 1, 7, 0, 5, 0.00,60.00,Wednesday
4973,-0.9486321079324167
4826,1851684.4790918148
4827,9.75603597908048e-8
2,7, 1, 7, 0, 6, 0.00,60.00,Wednesday
4973,-0.9543916553660592
4826,1913734.891589234
4827,8.789129424258135e-8
2,7, 1, 7, 0, 7, 0.00,60.00,Wednesday
4973,-0.9601741411381108
4826,1964169.5610011738
4827,8.1956841313513e-8
2,7, 1, 7, 0, 8, 0.00,60.00,Wednesday
4973,-1.5861185801839469
4826,0.0
4827,0.0
2,7, 1, 7, 0, 9, 0.00,60.00,Wednesday
4973,-1.9181306864304453
4826,0.0
4827,0.0
2,7, 1, 7, 0,10, 0.00,60.00,Wednesday
4973,-1.9354846699206637
4826,0.0
4827,0.0
2,7, 1, 7, 0,11, 0.00,60.00,Wednesday
4973,-1.9355645073536588
4826,0.0
4827,0.0
2,7, 1, 7, 0,12, 0.00,60.00,Wednesday
4973,-1.9148425736696929
4826,0.0
4827,0.0
2,7, 1, 7, 0,13, 0.00,60.00,Wednesday
4973,-1.86534434373947
4826,0.0
4827,0.0
2,7, 1, 7, 0,14, 0.00,60.00,Wednesday
4973,-1.786138904489064
4826,0.0
4827,0.0
2,7, 1, 7, 0,15, 0.00,60.00,Wednesday
4973,-1.6849275164431075
4826,0.0
4827,0.0
2,7, 1, 7, 0,16, 0.00,60.00,Wednesday
4973,-1.5608854541596218
4826,0.0
4827,0.0
2,7, 1, 7, 0,17, 0.00,60.00,Wednesday
4973,-1.4828640145045469
4826,0.0
4827,0.0
2,7, 1, 7, 0,18, 0.00,60.00,Wednesday
4973,-1.4989024086518586
4826,0.0
4827,0.0
2,7, 1, 7, 0,19, 0.00,60.00,Wednesday
4973,-1.5305330614628579
4826,0.0
4827,0.0
2,7, 1, 7, 0,20, 0.00,60.00,Wednesday
4973,-1.5505145651460222
4826,0.0
4827,0.0
2,7, 1, 7, 0,21, 0.00,60.00,Wednesday
4973,-1.5741612376235513
4826,0.0
4827,0.0
2,7, 1, 7, 0,22, 0.00,60.00,Wednesday
4973,-1.1383160081848057
4826,2179207.0746063746
4827,2.069896254397463e-8
2,7, 1, 7, 0,23, 0.00,60.00,Wednesday
4973,-0.9884641313220486
4826,1562516.1286247185
4827,3.453237695794087e-8
2,7, 1, 7, 0,24, 0.00,60.00,Wednesday
4973,-0.9784233992853643
4826,1476371.6898163546
4827,2.5119106794591063e-8
2,8, 1, 8, 0, 1, 0.00,60.00,Thursday
4973,-0.9732894147878333
4826,1679882.8600718349
4827,6.46069181059899e-8
2,8, 1, 8, 0, 2, 0.00,60.00,Thursday
4973,-0.9686710228048003
4826,1689629.4533869453
4827,3.5504399420460689e-8
2,8, 1, 8, 0, 3, 0.00,60.00,Thursday
4973,-0.9645860856825714
4826,1712588.0623176397
4827,7.054836714814883e-8
2,8, 1, 8, 0, 4, 0.00,60.00,Thursday
4973,-0.9611841820775338
4826,1732844.4514821333
4827,1.5705836631241256e-8
2,8, 1, 8, 0, 5, 0.00,60.00,Thursday
4973,-0.9582396252499438
4826,1742252.3725621533
4827,8.594724931754172e-9
2,8, 1, 8, 0, 6, 0.00,60.00,Thursday
4973,-0.9551654092029103
4826,1750410.8887904767
4827,8.374740900762845e-8
2,8, 1, 8, 0, 7, 0.00,60.00,Thursday
4973,-0.9529955504490313
4826,1749059.7867674158
4827,7.837570592528209e-8
2,8, 1, 8, 0, 8, 0.00,60.00,Thursday
4973,-1.46574292525778
4826,0.0
4827,0.0
2,8, 1, 8, 0, 9, 0.00,60.00,Thursday
4973,-1.75282059025588
4826,0.0
4827,0.0
2,8, 1, 8, 0,10, 0.00,60.00,Thursday
4973,-1.755311187819903
4826,0.0
4827,0.0
2,8, 1, 8, 0,11, 0.00,60.00,Thursday
4973,-1.7433657839034827
4826,0.0
4827,0.0
2,8, 1, 8, 0,12, 0.00,60.00,Thursday
4973,-1.7212098845233932
4826,0.0
4827,0.0
2,8, 1, 8, 0,13, 0.00,60.00,Thursday
4973,-1.6956423579153158
4826,0.0
4827,0.0
2,8, 1, 8, 0,14, 0.00,60.00,Thursday
4973,-1.6687518711512326
4826,0.0
4827,0.0
2,8, 1, 8, 0,15, 0.00,60.00,Thursday
4973,-1.6436416486958512
4826,0.0
4827,0.0
2,8, 1, 8, 0,16, 0.00,60.00,Thursday
4973,-1.623080371896313
4826,0.0
4827,0.0
2,8, 1, 8, 0,17, 0.00,60.00,Thursday
4973,-1.6067795115700028
4826,0.0
4827,0.0
2,8, 1, 8, 0,18, 0.00,60.00,Thursday
4973,-1.608033774023252
4826,0.0
4827,0.0
2,8, 1, 8, 0,19, 0.00,60.00,Thursday
4973,-1.6254806721462
4826,0.0
4827,0.0
2,8, 1, 8, 0,20, 0.00,60.00,Thursday
4973,-1.6398081268955332
4826,0.0
4827,0.0
2,8, 1, 8, 0,21, 0.00,60.00,Thursday
4973,-1.6531680456269707
4826,0.0
4827,0.0
2,8, 1, 8, 0,22, 0.00,60.00,Thursday
4973,-1.1610895179192169
4826,2357616.211684473
4827,2.8394993023539429e-8
2,8, 1, 8, 0,23, 0.00,60.00,Thursday
4973,-0.9898123598338078
4826,1618525.266534742
4827,3.1667468647356148e-8
2,8, 1, 8, 0,24, 0.00,60.00,Thursday
4973,-0.9748369855837216
4826,1529130.1189544216
4827,1.944044925039634e-8
2,9, 1, 9, 0, 1, 0.00,60.00,Friday
4973,-0.9681555649239941
4826,1744834.4811306934
4827,4.602246203181234e-8
2,9, 1, 9, 0, 2, 0.00,60.00,Friday
4973,-0.9650522218605226
4826,1771338.955180658
4827,1.1029896995751187e-7
2,9, 1, 9, 0, 3, 0.00,60.00,Friday
4973,-0.9628059202878252
4826,1777345.3677584585
4827,5.622382559522521e-8
2,9, 1, 9, 0, 4, 0.00,60.00,Friday
4973,-0.9597005932789215
4826,1766223.7729989389
4827,6.533014129672665e-8
2,9, 1, 9, 0, 5, 0.00,60.00,Friday
4973,-0.9557409098052645
4826,1753570.220054084
4827,6.568825483554974e-8
2,9, 1, 9, 0, 6, 0.00,60.00,Friday
4973,-0.9517304010902332
4826,1743520.8437833614
4827,8.973302101367153e-8
2,9, 1, 9, 0, 7, 0.00,60.00,Friday
4973,-0.9486766586196022
4826,1734141.2029364976
4827,2.5477220333414153e-8
2,9, 1, 9, 0, 8, 0.00,60.00,Friday
4973,-1.4457100994041695
4826,0.0
4827,0.0
2,9, 1, 9, 0, 9, 0.00,60.00,Friday
4973,-1.741177972780912
4826,0.0
4827,0.0
2,9, 1, 9, 0,10, 0.00,60.00,Friday
4973,-1.764491241766798
4826,0.0
4827,0.0
2,9, 1, 9, 0,11, 0.00,60.00,Friday
4973,-1.7672964749384928
4826,0.0
4827,0.0
2,9, 1, 9, 0,12, 0.00,60.00,Friday
4973,-1.7648647782089829
4826,0.0
4827,0.0
2,9, 1, 9, 0,13, 0.00,60.00,Friday
4973,-1.7618156803977996
4826,0.0
4827,0.0
2,9, 1, 9, 0,14, 0.00,60.00,Friday
4973,-1.7537443403149849
4826,0.0
4827,0.0
2,9, 1, 9, 0,15, 0.00,60.00,Friday
4973,-1.7497557182456285
4826,0.0
4827,0.0
2,9, 1, 9, 0,16, 0.00,60.00,Friday
4973,-1.7457452348621395
4826,0.0
4827,0.0
2,9, 1, 9, 0,17, 0.00,60.00,Friday
4973,-1.7485057201779777
4826,0.0
4827,0.0
2,9, 1, 9, 0,18, 0.00,60.00,Friday
4973,-1.7575052226613229
4826,0.0
4827,0.0
2,9, 1, 9, 0,19, 0.00,60.00,Friday
4973,-1.764019801541172
4826,0.0
4827,0.0
2,9, 1, 9, 0,20, 0.00,60.00,Friday
4973,-1.754757760803359
4826,0.0
4827,0.0
2,9, 1, 9, 0,21, 0.00,60.00,Friday
4973,-1.7532646074609846
4826,0.0
4827,0.0
2,9, 1, 9, 0,22, 0.00,60.00,Friday
4973,-1.2057288798691364
4826,2648832.3444547869
4827,3.339835075166775e-8
2,9, 1, 9, 0,23, 0.00,60.00,Friday
4973,-1.0197949474350004
4826,1801533.6142216628
4827,3.069544618483633e-8
2,9, 1, 9, 0,24, 0.00,60.00,Friday
4973,-1.0060958329730099
4826,1663783.2746099025
4827,4.000639819423668e-8
2,10, 1,10, 0, 1, 0.00,60.00,Saturday
4973,-0.9981480889970328
4826,1821482.553985013
4827,1.9662533380142123
2,10, 1,10, 0, 2, 0.00,60.00,Saturday
4973,-0.9919307600124179
4826,1797367.1141328486
4827,6.645564099017065e-8
2,10, 1,10, 0, 3, 0.00,60.00,Saturday
4973,-0.9863817011690916
4826,1762299.611370558
4827,8.118945515889209e-8
2,10, 1,10, 0, 4, 0.00,60.00,Saturday
4973,-0.9809822990924353
4826,1736459.0711997664
4827,4.062030711793341e-8
2,10, 1,10, 0, 5, 0.00,60.00,Saturday
4973,-0.9754312021849091
4826,1720828.7848553737
4827,3.473701326583978e-8
2,10, 1,10, 0, 6, 0.00,60.00,Saturday
4973,-0.9703176922085079
4826,1712329.941175934
4827,1.8110313249053435e-8
2,10, 1,10, 0, 7, 0.00,60.00,Saturday
4973,-0.96611245983914
4826,1703306.2694858029
4827,5.417746251623612e-8
2,10, 1,10, 0, 8, 0.00,60.00,Saturday
4973,-0.9628267867855218
4826,1687932.5907296404
4827,9.029406555782771e-8
2,10, 1,10, 0, 9, 0.00,60.00,Saturday
4973,-0.9596557112359365
4826,1734898.5969030706
4827,6.742766345269047e-8
2,10, 1,10, 0,10, 0.00,60.00,Saturday
4973,-0.9550770274725728
4826,1697069.6487019249
4827,3.959712557843886e-8
2,10, 1,10, 0,11, 0.00,60.00,Saturday
4973,-0.952753745001228
4826,1705767.0108150703
4827,5.504716682480648e-8
2,10, 1,10, 0,12, 0.00,60.00,Saturday
4973,-0.9514879347865239
4826,1644360.9792103153
4827,2.9416469260468149e-8
2,10, 1,10, 0,13, 0.00,60.00,Saturday
4973,-0.9490233026612054
4826,1569422.2341931419
4827,3.309992280264851e-8
2,10, 1,10, 0,14, 0.00,60.00,Saturday
4973,-0.9461605566872726
4826,1490364.7508119327
4827,1.0743406164692715e-9
2,10, 1,10, 0,15, 0.00,60.00,Saturday
4973,-0.9373603965949573
4826,1334432.0233610264
4827,3.5350922189536507e-8
2,10, 1,10, 0,16, 0.00,60.00,Saturday
4973,-0.9213015763132
4826,1240703.4957828662
4827,3.9750602809363048e-8
2,10, 1,10, 0,17, 0.00,60.00,Saturday
4973,-0.9055393884963178
4826,1270458.1968283193
4827,2.552837941038888e-8
2,10, 1,10, 0,18, 0.00,60.00,Saturday
4973,-0.8974459066224175
4826,1293981.559844504
4827,2.8393287720973605e-8
2,10, 1,10, 0,19, 0.00,60.00,Saturday
4973,-0.895396638050979
4826,1332323.3090803638
4827,5.4791371439932848e-8
2,10, 1,10, 0,20, 0.00,60.00,Saturday
4973,-0.8945149960514298
4826,1248244.7235066177
4827,3.1232616493070967e-8
2,10, 1,10, 0,21, 0.00,60.00,Saturday
4973,-0.8936717856491292
4826,1227253.3385634795
4827,3.724380803760141e-8
2,10, 1,10, 0,22, 0.00,60.00,Saturday
4973,-0.8890591371528714
4826,1215490.1315799449
4827,4.276898835087195e-8
2,10, 1,10, 0,23, 0.00,60.00,Saturday
4973,-0.8824480661668955
4826,1216466.1078018132
4827,2.8700242182821968e-8
2,10, 1,10, 0,24, 0.00,60.00,Saturday
4973,-0.876319596447932
4826,1195810.761663831
4827,7.0599526225123558e-9
2,11, 1,11, 0, 1, 0.00,60.00,Sunday
4973,-0.8772385523012553
4826,1397243.9705559372
4827,3.491403991314915e-8
2,11, 1,11, 0, 2, 0.00,60.00,Sunday
4973,-0.8823239481300205
4826,1462487.077125997
4827,2.9109514798619786e-8
2,11, 1,11, 0, 3, 0.00,60.00,Sunday
4973,-0.8888743826083145
4826,1497012.306671671
4827,3.7908876038272868e-8
2,11, 1,11, 0, 4, 0.00,60.00,Sunday
4973,-0.8925036381331767
4826,1509914.2642826539
4827,4.90615548187634e-8
2,11, 1,11, 0, 5, 0.00,60.00,Sunday
4973,-0.893746317975509
4826,1524540.4902951862
4827,6.226059667824302e-8
2,11, 1,11, 0, 6, 0.00,60.00,Sunday
4973,-0.8957725389269748
4826,1543809.2720316128
4827,2.0975221559638159e-8
2,11, 1,11, 0, 7, 0.00,60.00,Sunday
4973,-0.8986645608741772
4826,1560172.7476411248
4827,5.300080374581739e-8
2,11, 1,11, 0, 8, 0.00,60.00,Sunday
4973,-0.9001291762722905
4826,1544331.596891176
4827,5.301103556121234e-8
2,11, 1,11, 0, 9, 0.00,60.00,Sunday
4973,-0.899020604155856
4826,1525104.9063796227
4827,2.8495605874923059e-8
2,11, 1,11, 0,10, 0.00,60.00,Sunday
4973,-0.8938481930664917
4826,1448009.0496378768
4827,8.44124770082999e-9
2,11, 1,11, 0,11, 0.00,60.00,Sunday
4973,-0.8868951682686133
4826,1447259.6862765228
4827,3.545324034348596e-8
2,11, 1,11, 0,12, 0.00,60.00,Sunday
4973,-0.8810950902447758
4826,1406462.0960169906
4827,4.8345327741117219e-8
2,11, 1,11, 0,13, 0.00,60.00,Sunday
4973,-0.8768397609778204
4826,1373055.6778393337
4827,3.263949110987596e-8
2,11, 1,11, 0,14, 0.00,60.00,Sunday
4973,-0.8732339260793041
4826,1350719.6422512974
4827,7.571543392259628e-9
2,11, 1,11, 0,15, 0.00,60.00,Sunday
4973,-0.8699779926712072
4826,1261080.9913491302
4827,1.6984813555609436e-8
2,11, 1,11, 0,16, 0.00,60.00,Sunday
4973,-0.8663145281299017
4826,1231492.6136117518
4827,6.12885742157232e-8
2,11, 1,11, 0,17, 0.00,60.00,Sunday
4973,-0.8645860297894648
4826,1271445.2214080943
4827,3.9187852962641048e-8
2,11, 1,11, 0,18, 0.00,60.00,Sunday
4973,-0.8643220340442435
4826,1262129.7591888936
4827,1.4989609553595075e-8
2,11, 1,11, 0,19, 0.00,60.00,Sunday
4973,-0.8622514575674013
4826,1240925.157697816
4827,3.432774065004196e-8
2,11, 1,11, 0,20, 0.00,60.00,Sunday
4973,-0.8598475238139203
4826,1101560.6299206236
4827,1.0589928933768533e-8
2,11, 1,11, 0,21, 0.00,60.00,Sunday
4973,-0.8572435877725808
4826,1045191.1684457895
4827,3.253717295592651e-8
2,11, 1,11, 0,22, 0.00,60.00,Sunday
4973,-0.8545302479173769
4826,1028039.8588932779
4827,2.864908310584724e-8
2,11, 1,11, 0,23, 0.00,60.00,Sunday
4973,-0.8537127660648129
4826,1016714.6832876743
4827,4.998241820430849e-8
2,11, 1,11, 0,24, 0.00,60.00,Sunday
4973,-0.8531725141505639
4826,956335.4577362931
4827,1.928697201947216e-8
2,12, 1,12, 0, 1, 0.00,60.00,Monday
4973,-0.8543655290874969
4826,1099570.5429763064
4827,2.9326940875762376e-8
2,12, 1,12, 0, 2, 0.00,60.00,Monday
4973,-0.8556459563466364
4826,1111521.779417457
4827,2.036131263594143e-8
2,12, 1,12, 0, 3, 0.00,60.00,Monday
4973,-0.8575542673199332
4826,1142643.2808912737
4827,3.483933141978923e-8
2,12, 1,12, 0, 4, 0.00,60.00,Monday
4973,-0.8590063299379264
4826,1171241.4857841929
4827,4.588969204633031e-8
2,12, 1,12, 0, 5, 0.00,60.00,Monday
4973,-0.858943005892304
4826,1197702.6962668168
4827,0.0
2,12, 1,12, 0, 6, 0.00,60.00,Monday
4973,-0.8573387967062719
4826,1222290.0164361145
4827,4.5071146814734678e-8
2,12, 1,12, 0, 7, 0.00,60.00,Monday
4973,-0.8546155581282081
4826,1238961.644047057
4827,3.023501449206378e-8
2,12, 1,12, 0, 8, 0.00,60.00,Monday
4973,-1.2926375458850297
4826,0.0
4827,0.0
2,12, 1,12, 0, 9, 0.00,60.00,Monday
4973,-1.5268708218915726
4826,0.0
4827,0.0
2,12, 1,12, 0,10, 0.00,60.00,Monday
4973,-1.529692365837042
4826,0.0
4827,0.0
2,12, 1,12, 0,11, 0.00,60.00,Monday
4973,-1.5309361244271738
4826,0.0
4827,0.0
2,12, 1,12, 0,12, 0.00,60.00,Monday
4973,-1.5365272062790608
4826,0.0
4827,0.0
2,12, 1,12, 0,13, 0.00,60.00,Monday
4973,-1.539043512329455
4826,0.0
4827,0.0
2,12, 1,12, 0,14, 0.00,60.00,Monday
4973,-1.544615585709111
4826,0.0
4827,0.0
2,12, 1,12, 0,15, 0.00,60.00,Monday
4973,-1.543318201880404
4826,0.0
4827,0.0
2,12, 1,12, 0,16, 0.00,60.00,Monday
4973,-1.5353048204976916
4826,0.0
4827,0.0
2,12, 1,12, 0,17, 0.00,60.00,Monday
4973,-1.5249881362307239
4826,0.0
4827,0.0
2,12, 1,12, 0,18, 0.00,60.00,Monday
4973,-1.5161683384706673
4826,0.0
4827,0.0
2,12, 1,12, 0,19, 0.00,60.00,Monday
4973,-1.5153805783884758
4826,0.0
4827,0.0
2,12, 1,12, 0,20, 0.00,60.00,Monday
4973,-1.5100810917813903
4826,0.0
4827,0.0
2,12, 1,12, 0,21, 0.00,60.00,Monday
4973,-1.5137689347465489
4826,0.0
4827,0.0
2,12, 1,12, 0,22, 0.00,60.00,Monday
4973,-1.071745557775119
4826,1967085.9829610764
4827,2.4130031306413003e-8
2,12, 1,12, 0,23, 0.00,60.00,Monday
4973,-0.9223218016107444
4826,1295952.3909281335
4827,1.3096723705530167e-8
2,12, 1,12, 0,24, 0.00,60.00,Monday
4973,-0.9115769433506944
4826,1186283.8260066764
4827,4.368985173641704e-8
2,13, 1,13, 0, 1, 0.00,60.00,Tuesday
4973,-0.905115524476706
4826,1364765.659692308
4827,4.224965192201324
2,13, 1,13, 0, 2, 0.00,60.00,Tuesday
4973,-0.8996026547174718
4826,1356271.0391662738
4827,6.394884621840902e-9
2,13, 1,13, 0, 3, 0.00,60.00,Tuesday
4973,-0.8947889155617576
4826,1350326.21628048
4827,5.6070348364301029e-8
2,13, 1,13, 0, 4, 0.00,60.00,Tuesday
4973,-0.8905051411733808
4826,1344894.6839128859
4827,7.4641093306127e-8
2,13, 1,13, 0, 5, 0.00,60.00,Tuesday
4973,-0.8864322539173555
4826,1344242.8484196547
4827,3.5504399420460689e-8
2,13, 1,13, 0, 6, 0.00,60.00,Tuesday
4973,-0.8824793809301774
4826,1347716.9068702725
4827,8.538449947081972e-8
2,13, 1,13, 0, 7, 0.00,60.00,Tuesday
4973,-0.8797253813251009
4826,1348990.8055883388
4827,3.9750602809363048e-8