Program Version,EnergyPlus, Version 8.7.0-78a111df4a, YMD=2019.06.21 03:04
1,5,Environment Title[],Latitude[deg],Longitude[deg],Time Zone[],Elevation[m]
2,6,Day of Simulation[],Month[],Day of Month[],DST Indicator[1=yes 0=no],Hour[],StartMinute[],EndMinute[],DayType
3,3,Cumulative Day of Simulation[],Month[],Day of Month[],DST Indicator[1=yes 0=no],DayType  ! When Daily Report Variables Requested
4,2,Cumulative Days of Simulation[],Month[]  ! When Monthly Report Variables Requested
5,1,Cumulative Days of Simulation[] ! When Run Period Report Variables Requested
1929,1,THERMAL ZONE: SPACE 201,Zone Air Temperature [C] !Hourly
2695,1,THERMAL ZONE: SPACE 201 PEOPLE,Zone Thermal Comfort Fanger Model PMV [] !Hourly
3063,1,THERMAL ZONE: SPACE 305 PTHP,Zone Packaged Terminal Heat Pump Total Heating Energy [J] !Hourly
3064,1,THERMAL ZONE: SPACE 305 PTHP,Zone Packaged Terminal Heat Pump Total Cooling Energy [J] !Hourly
End of Data Dictionary
1,ANN HTG 99.6% CONDNS DB,  29.58, 106.47,   8.00, 259.10
2,1, 1,21, 0, 1, 0.00,60.00,WinterDesignDay
2695,-6.493629344527741
1929,18.000065838678205
3063,4653073.640377952
3064,0.0
2,1, 1,21, 0, 2, 0.00,60.00,WinterDesignDay
2695,-6.497542164326988
1929,18.000049771487708
3063,4672156.662876741
3064,0.0
2,1, 1,21, 0, 3, 0.00,60.00,WinterDesignDay
2695,-6.50080208875251
1929,18.000035747497397
3063,4691996.564280508
3064,0.0
2,1, 1,21, 0, 4, 0.00,60.00,WinterDesignDay
2695,-6.503657185657928
1929,18.000030305774304
3063,4709802.649105722
3064,0.0
2,1, 1,21, 0, 5, 0.00,60.00,WinterDesignDay
2695,-6.506367006845366
1929,18.00002389428448
3063,4730080.034495001
3064,0.0
2,1, 1,21, 0, 6, 0.00,60.00,WinterDesignDay
2695,-6.508610312553551
1929,17.99999593629988
3063,4760501.156152074
3064,0.0
2,1, 1,21, 0, 7, 0.00,60.00,WinterDesignDay
2695,-5.677245236902196
1929,17.999927598356665
3063,4799681.296046142
3064,0.0
2,1, 1,21, 0, 8, 0.00,60.00,WinterDesignDay
2695,-5.67434170836485
1929,17.999833634693169
3063,5186233.298161233
3064,0.0
2,1, 1,21, 0, 9, 0.00,60.00,WinterDesignDay
2695,-5.319220552384361
1929,18.00009886540409
3063,6311364.441627347
3064,0.0
2,1, 1,21, 0,10, 0.00,60.00,WinterDesignDay
2695,-5.30039258934502
1929,18.000705402979283
3063,7305597.125244206
3064,0.0
2,1, 1,21, 0,11, 0.00,60.00,WinterDesignDay
2695,-5.288496891480395
1929,18.000899321519694
3063,7022344.388175184
3064,0.0
2,1, 1,21, 0,12, 0.00,60.00,WinterDesignDay
2695,-5.2807417687374509
1929,18.00092636334313
3063,6835928.890832996
3064,0.0
2,1, 1,21, 0,13, 0.00,60.00,WinterDesignDay
2695,-5.276507977521217
1929,18.000840506680928
3063,6367108.262155669
3064,0.0
2,1, 1,21, 0,14, 0.00,60.00,WinterDesignDay
2695,-5.272895791531216
1929,18.000816665617167
3063,6293900.616312673
3064,0.0
2,1, 1,21, 0,15, 0.00,60.00,WinterDesignDay
2695,-5.268261456452083
1929,18.00096195418855
3063,6556814.591687122
3064,0.0
2,1, 1,21, 0,16, 0.00,60.00,WinterDesignDay
2695,-5.26643494294135
1929,18.00108910804423
3063,6544113.69759243
3064,0.0
2,1, 1,21, 0,17, 0.00,60.00,WinterDesignDay
2695,-5.2677167826557469
1929,18.00114757024178
3063,6601292.772376992
3064,0.0
2,1, 1,21, 0,18, 0.00,60.00,WinterDesignDay
2695,-5.270087646627952
1929,18.00119409688889
3063,6688154.640125554
3064,0.0
2,1, 1,21, 0,19, 0.00,60.00,WinterDesignDay
2695,-5.615260256969445
1929,18.000682731743166
3063,5223111.308120491
3064,0.0
2,1, 1,21, 0,20, 0.00,60.00,WinterDesignDay
2695,-5.6308438687125099
1929,18.000359108090405
3063,5399463.37650221
3064,0.0
2,1, 1,21, 0,21, 0.00,60.00,WinterDesignDay
2695,-5.6411708642692199
1929,18.000188808891147
3063,4570082.24370052
3064,0.0
2,1, 1,21, 0,22, 0.00,60.00,WinterDesignDay
2695,-5.649197761999656
1929,18.000115228095447
3063,4613846.810681092
3064,0.0
2,1, 1,21, 0,23, 0.00,60.00,WinterDesignDay
2695,-5.654853301435811
1929,18.00008763992488
3063,4634544.691526633
3064,0.0
2,1, 1,21, 0,24, 0.00,60.00,WinterDesignDay
2695,-5.659448106694288
1929,18.000075222064159
3063,4648155.672766516
3064,0.0
1,ANN CLG 4% CONDNS DB =>MWB,  29.58, 106.47,   8.00, 259.10
2,1, 7,21, 0, 1, 0.00,60.00,SummerDesignDay
2695,-3.1530240342062876
1929,25.999760078549227
3063,0.0
3064,881602.9370459648
2,1, 7,21, 0, 2, 0.00,60.00,SummerDesignDay
2695,-3.1632594644328679
1929,25.99983131236013
3063,0.0
3064,849159.4590637613
2,1, 7,21, 0, 3, 0.00,60.00,SummerDesignDay
2695,-3.171193265591125
1929,25.999880170468626
3063,0.0
3064,822029.2142027104
2,1, 7,21, 0, 4, 0.00,60.00,SummerDesignDay
2695,-3.177654103961365
1929,25.999910732855825
3063,0.0
3064,798655.3224207496
2,1, 7,21, 0, 5, 0.00,60.00,SummerDesignDay
2695,-3.183239327966892
1929,25.999932212437803
3063,0.0
3064,776438.953889472
2,1, 7,21, 0, 6, 0.00,60.00,SummerDesignDay
2695,-3.188089219723496
1929,25.999961319104235
3063,0.0
3064,751079.5947511881
2,1, 7,21, 0, 7, 0.00,60.00,SummerDesignDay
2695,-3.8913405210470737
1929,25.999996641040995
3063,0.0
3064,720960.0428119964
2,1, 7,21, 0, 8, 0.00,60.00,SummerDesignDay
2695,-3.8683842376098775
1929,25.99968152627459
3063,0.0
3064,1125955.932140031
2,1, 7,21, 0, 9, 0.00,60.00,SummerDesignDay
2695,-3.8102652963473306
1929,25.996906911371238
3063,0.0
3064,3788210.625180632
2,1, 7,21, 0,10, 0.00,60.00,SummerDesignDay
2695,-3.6598697349921047
1929,26.58078797191796
3063,0.0
3064,6871448.103797557
2,1, 7,21, 0,11, 0.00,60.00,SummerDesignDay
2695,-3.546881132139815
1929,26.984040986764929
3063,0.0
3064,6974498.294869785
2,1, 7,21, 0,12, 0.00,60.00,SummerDesignDay
2695,-3.4769222390184679
1929,27.285374989440319
3063,0.0
3064,6915042.507989914
2,1, 7,21, 0,13, 0.00,60.00,SummerDesignDay
2695,-3.513705774895792
1929,26.96315370501729
3063,0.0
3064,6570187.064900798
2,1, 7,21, 0,14, 0.00,60.00,SummerDesignDay
2695,-3.5202114357953695
1929,27.01886528488775
3063,0.0
3064,6331127.907142327
2,1, 7,21, 0,15, 0.00,60.00,SummerDesignDay
2695,-3.410182023806582
1929,27.6280558123317
3063,0.0
3064,6661795.854503017
2,1, 7,21, 0,16, 0.00,60.00,SummerDesignDay
2695,-3.364679277097514
1929,27.674429247233875
3063,0.0
3064,6921789.335027667
2,1, 7,21, 0,17, 0.00,60.00,SummerDesignDay
2695,-3.380288658976456
1929,27.55165671782687
3063,0.0
3064,7015040.784274942
2,1, 7,21, 0,18, 0.00,60.00,SummerDesignDay
2695,-3.407224526542771
1929,27.377137244329487
3063,0.0
3064,7110110.936207412
2,1, 7,21, 0,19, 0.00,60.00,SummerDesignDay
2695,-3.581079608958133
1929,26.04745236644669
3063,0.0
3064,4161187.8885345875
2,1, 7,21, 0,20, 0.00,60.00,SummerDesignDay
2695,-3.6912430285513015
1929,25.997019743013145
3063,0.0
3064,3391586.3168451485
2,1, 7,21, 0,21, 0.00,60.00,SummerDesignDay
2695,-3.72534311299582
1929,25.998584371913979
3063,0.0
3064,1362199.7737439825
2,1, 7,21, 0,22, 0.00,60.00,SummerDesignDay
2695,-3.7774247972926147
1929,25.999172890351347
3063,0.0
3064,1134477.866942866
2,1, 7,21, 0,23, 0.00,60.00,SummerDesignDay
2695,-3.808758881249908
1929,25.999475973448967
3063,0.0
3064,1019799.5239287824
2,1, 7,21, 0,24, 0.00,60.00,SummerDesignDay
2695,-3.8292900104959028
1929,25.999660646445134
3063,0.0
3064,949762.2151676952
1,RUN PERIOD 1,  29.58, 106.47,   8.00, 259.10
2,1, 1, 1, 0, 1, 0.00,60.00,Holiday
2695,-6.12293737382922
1929,18.00020570932664
3063,1662027.8105212334
3064,0.0
2,1, 1, 1, 0, 2, 0.00,60.00,Holiday
2695,-6.126095252711707
1929,18.000077591509123
3063,1689336.6306555893
3064,0.0
2,1, 1, 1, 0, 3, 0.00,60.00,Holiday
2695,-6.1275830099654489
1929,18.00005380278139
3063,1694448.8637167216
3064,0.0
2,1, 1, 1, 0, 4, 0.00,60.00,Holiday
2695,-6.129258316538401
1929,18.000073667058478
3063,1694602.4820243577
3064,0.0
2,1, 1, 1, 0, 5, 0.00,60.00,Holiday
2695,-6.132315168677749
1929,18.000128998357146
3063,1690675.331776141
3064,0.0
2,1, 1, 1, 0, 6, 0.00,60.00,Holiday
2695,-6.139073950776432
1929,18.00016565959807
3063,1632170.8062173243
3064,0.0
2,1, 1, 1, 0, 7, 0.00,60.00,Holiday
2695,-6.545586839879391
1929,18.000124001753055
3063,1678349.8528130274
3064,0.0
2,1, 1, 1, 0, 8, 0.00,60.00,Holiday
2695,-6.554539826227941
1929,18.000079424124598
3063,1740567.5065857887
3064,0.0
2,1, 1, 1, 0, 9, 0.00,60.00,Holiday
2695,-6.059351192307209
1929,18.000039578508557
3063,1801221.9212378327
3064,0.0
2,1, 1, 1, 0,10, 0.00,60.00,Holiday
2695,-6.061998340513102
1929,18.000008632068924
3063,1866066.5723129123
3064,0.0
2,1, 1, 1, 0,11, 0.00,60.00,Holiday
2695,-6.062754247032001
1929,18.0000055256995
3063,1909742.9176707289
3064,0.0
2,1, 1, 1, 0,12, 0.00,60.00,Holiday
2695,-6.063272269156801
1929,18.00000229497402
3063,1932464.173645338
3064,0.0
2,1, 1, 1, 0,13, 0.00,60.00,Holiday
2695,-6.063913533546233
1929,18.00000069234624
3063,1975582.0268710382
3064,0.0
2,1, 1, 1, 0,14, 0.00,60.00,Holiday
2695,-6.062566228686523
1929,18.000000573821926
3063,2016203.4501500636
3064,0.0
2,1, 1, 1, 0,15, 0.00,60.00,Holiday
2695,-6.058917829661943
1929,18.000000462797453
3063,2041310.1656147629
3064,0.0
2,1, 1, 1, 0,16, 0.00,60.00,Holiday
2695,-6.052826759598356
1929,18.000000361151796
3063,2053104.3576512235
3064,0.0
2,1, 1, 1, 0,17, 0.00,60.00,Holiday
2695,-6.044215279347111
1929,18.00000028270495
3063,2048990.7941574315
3064,0.0
2,1, 1, 1, 0,18, 0.00,60.00,Holiday
2695,-6.033496685464463
1929,18.000000234015574
3063,2022949.6138185855
3064,0.0
2,1, 1, 1, 0,19, 0.00,60.00,Holiday
2695,-6.516347855611116
1929,18.000000208179853
3063,1972511.43775462
3064,0.0
2,1, 1, 1, 0,20, 0.00,60.00,Holiday
2695,-6.503927544930117
1929,18.000000212658326
3063,1881612.8360930798
3064,0.0
2,1, 1, 1, 0,21, 0.00,60.00,Holiday
2695,-6.497128820472693
1929,18.000057293188865
3063,1766895.6670943737
3064,0.0
2,1, 1, 1, 0,22, 0.00,60.00,Holiday
2695,-6.497763306502015
1929,18.000295686322617
3063,1679467.1632572455
3064,0.0
2,1, 1, 1, 0,23, 0.00,60.00,Holiday
2695,-6.503561997742492
1929,18.00038870400628
3063,1638683.7459580019
3064,0.0
2,1, 1, 1, 0,24, 0.00,60.00,Holiday
2695,-6.511291081487776
1929,18.00037794518152
3063,1627435.3254704183
3064,0.0
2,2, 1, 2, 0, 1, 0.00,60.00,Holiday
2695,-6.5184706140498
1929,18.00034257944466
3063,1626632.9038952154
3064,0.0
2,2, 1, 2, 0, 2, 0.00,60.00,Holiday
2695,-6.5255915975906169
1929,18.00027854549408
3063,1640069.522567835
3064,0.0
2,2, 1, 2, 0, 3, 0.00,60.00,Holiday
2695,-6.531977331371905
1929,18.000200294081986
3063,1663051.9862289197
3064,0.0
2,2, 1, 2, 0, 4, 0.00,60.00,Holiday
2695,-6.5368869427600349
1929,18.000140148518484
3063,1686028.0927660098
3064,0.0
2,2, 1, 2, 0, 5, 0.00,60.00,Holiday
2695,-6.540812679685652
1929,18.000100422982667
3063,1709160.4904113608
3064,0.0
2,2, 1, 2, 0, 6, 0.00,60.00,Holiday
2695,-6.5441881777734
1929,18.000074355676884
3063,1734241.4492796127
3064,0.0
2,2, 1, 2, 0, 7, 0.00,60.00,Holiday
2695,-6.647762479858294
1929,18.000064097818386
3063,1759274.589966821
3064,0.0
2,2, 1, 2, 0, 8, 0.00,60.00,Holiday
2695,-6.6508867035929859
1929,18.000049322118767
3063,1789678.3737311923
3064,0.0
2,2, 1, 2, 0, 9, 0.00,60.00,Holiday
2695,-6.135316921865408
1929,18.00000419256857
3063,1840522.4701671694
3064,0.0
2,2, 1, 2, 0,10, 0.00,60.00,Holiday
2695,-6.135312265665381
1929,18.000000551768367
3063,1895680.3059745492
3064,0.0
2,2, 1, 2, 0,11, 0.00,60.00,Holiday
2695,-6.133730230404015
1929,18.000000490815137
3063,1921341.3172648883
3064,0.0
2,2, 1, 2, 0,12, 0.00,60.00,Holiday
2695,-6.132564395989241
1929,18.00000044685268
3063,1941602.2275117089
3064,0.0
2,2, 1, 2, 0,13, 0.00,60.00,Holiday
2695,-6.131521108711353
1929,18.000000412044824
3063,1959940.7736103298
3064,0.0
2,2, 1, 2, 0,14, 0.00,60.00,Holiday
2695,-6.130309700640843
1929,18.00000037362193
3063,1974291.5356352546
3064,0.0
2,2, 1, 2, 0,15, 0.00,60.00,Holiday
2695,-6.127980622548301
1929,18.000000324608125
3063,1990397.3508798546
3064,0.0
2,2, 1, 2, 0,16, 0.00,60.00,Holiday
2695,-6.123354355107149
1929,18.000000279702495
3063,1993851.6052922256
3064,0.0
2,2, 1, 2, 0,17, 0.00,60.00,Holiday
2695,-6.116953811554681
1929,18.000000266263503
3063,1947368.411795176
3064,0.0
2,2, 1, 2, 0,18, 0.00,60.00,Holiday
2695,-6.111771236389942
1929,18.00000028287288
3063,1871573.1573125974
3064,0.0
2,2, 1, 2, 0,19, 0.00,60.00,Holiday
2695,-6.621887230103893
1929,18.00002484902991
3063,1802713.3030675345
3064,0.0
2,2, 1, 2, 0,20, 0.00,60.00,Holiday
2695,-6.620340153383363
1929,18.00009581104882
3063,1745128.3007950336
3064,0.0
2,2, 1, 2, 0,21, 0.00,60.00,Holiday
2695,-6.6203095296212999
1929,18.000092486296344
3063,1713017.6038536046
3064,0.0
2,2, 1, 2, 0,22, 0.00,60.00,Holiday
2695,-6.620060959945722
1929,18.000020956950519
3063,1707668.0348622543
3064,0.0
2,2, 1, 2, 0,23, 0.00,60.00,Holiday
2695,-6.6186346664742718
1929,18.000000393075948
3063,1699940.030410922
3064,0.0
2,2, 1, 2, 0,24, 0.00,60.00,Holiday
2695,-6.617731345740083
1929,18.000043170601797
3063,1675335.3944019674
3064,0.0
2,3, 1, 3, 0, 1, 0.00,60.00,Holiday
2695,-6.619599789125694
1929,18.000114942826074
3063,1657989.8029925326
3064,0.0
2,3, 1, 3, 0, 2, 0.00,60.00,Holiday
2695,-6.623832539368512
1929,18.000207854638615
3063,1638551.0850241665
3064,0.0
2,3, 1, 3, 0, 3, 0.00,60.00,Holiday
2695,-6.631546205860684
1929,18.000247918394689
3063,1592696.9288852774
3064,0.0
2,3, 1, 3, 0, 4, 0.00,60.00,Holiday
2695,-6.644731620521092
1929,18.000159171954626
3063,1632020.315058184
3064,0.0
2,3, 1, 3, 0, 5, 0.00,60.00,Holiday
2695,-6.654168629865641
1929,18.000081757240389
3063,1708377.4167698818
3064,0.0
2,3, 1, 3, 0, 6, 0.00,60.00,Holiday
2695,-6.659592380837561
1929,18.00003996850515
3063,1760873.3199965796
3064,0.0
2,3, 1, 3, 0, 7, 0.00,60.00,Holiday
2695,-6.564741899235372
1929,18.00000741189194
3063,1830391.4774830738
3064,0.0
2,3, 1, 3, 0, 8, 0.00,60.00,Holiday
2695,-6.565025040582345
1929,18.00000362723696
3063,1856451.0003902897
3064,0.0
2,3, 1, 3, 0, 9, 0.00,60.00,Holiday
2695,-6.063982629292723
1929,18.000000729970279
3063,1889140.1822362936
3064,0.0
2,3, 1, 3, 0,10, 0.00,60.00,Holiday
2695,-6.064621246425077
1929,18.000000683360026
3063,1924297.6724080858
3064,0.0
2,3, 1, 3, 0,11, 0.00,60.00,Holiday
2695,-6.0654672056246989
1929,18.000000648020046
3063,1960546.4071120206
3064,0.0
2,3, 1, 3, 0,12, 0.00,60.00,Holiday
2695,-6.066269454176324
1929,18.00000061542094
3063,1993793.566502858
3064,0.0
2,3, 1, 3, 0,13, 0.00,60.00,Holiday
2695,-6.067339243423476
1929,18.00000059253644
3063,2025397.7424054717
3064,0.0
2,3, 1, 3, 0,14, 0.00,60.00,Holiday
2695,-6.068440568299143
1929,18.000000575739507
3063,2056995.5949439002
3064,0.0
2,3, 1, 3, 0,15, 0.00,60.00,Holiday
2695,-6.069384515702869
1929,18.000000565935268
3063,2088019.3808888014
3064,0.0
2,3, 1, 3, 0,16, 0.00,60.00,Holiday
2695,-6.069932943877883
1929,18.000000560678484
3063,2115680.2604879385
3064,0.0
2,3, 1, 3, 0,17, 0.00,60.00,Holiday
2695,-6.06997571328298
1929,18.000000554537569
3063,2145092.2598972127
3064,0.0
2,3, 1, 3, 0,18, 0.00,60.00,Holiday
2695,-6.06916063899271
1929,18.00000055456309
3063,2166937.4863118466
3064,0.0
2,3, 1, 3, 0,19, 0.00,60.00,Holiday
2695,-6.571580578302537
1929,18.0000005520165
3063,2184842.3083794044
3064,0.0
2,3, 1, 3, 0,20, 0.00,60.00,Holiday
2695,-6.569359583848683
1929,18.000000557480886
3063,2198751.780326417
3064,0.0
2,3, 1, 3, 0,21, 0.00,60.00,Holiday
2695,-6.566784952135854
1929,18.000000565944615
3063,2205968.973800617
3064,0.0
2,3, 1, 3, 0,22, 0.00,60.00,Holiday
2695,-6.564409189489871
1929,18.000000576326614
3063,2207807.9629545479
3064,0.0
2,3, 1, 3, 0,23, 0.00,60.00,Holiday
2695,-6.562675895176138
1929,18.00000059239268
3063,2210691.493885439
3064,0.0
2,3, 1, 3, 0,24, 0.00,60.00,Holiday
2695,-6.561631041663535
1929,18.000000608938256
3063,2209365.498011212
3064,0.0
2,4, 1, 4, 0, 1, 0.00,60.00,Wednesday
2695,-6.561594920640275
1929,18.000000626068844
3063,2216464.049381101
3064,0.0
2,4, 1, 4, 0, 2, 0.00,60.00,Wednesday
2695,-6.561829732111495
1929,18.0000021296985
3063,2221576.605397005
3064,0.0
2,4, 1, 4, 0, 3, 0.00,60.00,Wednesday
2695,-6.5625892689979798
1929,18.00000156607609
3063,2231965.410104636
3064,0.0
2,4, 1, 4, 0, 4, 0.00,60.00,Wednesday
2695,-6.5632013601365959
1929,18.000000680899388
3063,2245997.9671176697
3064,0.0
2,4, 1, 4, 0, 5, 0.00,60.00,Wednesday
2695,-6.563440093245446
1929,18.000000691395944
3063,2262598.497874181
3064,0.0
2,4, 1, 4, 0, 6, 0.00,60.00,Wednesday
2695,-6.5631185396845039
1929,18.000000704574686
3063,2273895.01471444
3064,0.0
2,4, 1, 4, 0, 7, 0.00,60.00,Wednesday
2695,-6.692449698018668
1929,18.000000715669889
3063,2279922.6932086565
3064,0.0
2,4, 1, 4, 0, 8, 0.00,60.00,Wednesday
2695,-6.690823922069252
1929,18.000025648259269
3063,2276852.782788197
3064,0.0
2,4, 1, 4, 0, 9, 0.00,60.00,Wednesday
2695,-6.153816779904471
1929,18.00020700182075
3063,2186769.271825476
3064,0.0
2,4, 1, 4, 0,10, 0.00,60.00,Wednesday
2695,-6.136294841134588
1929,18.000422962544439
3063,2033003.0198898584
3064,0.0
2,4, 1, 4, 0,11, 0.00,60.00,Wednesday
2695,-6.13025107539034
1929,18.000513812128565
3063,1946162.1934667847
3064,0.0
2,4, 1, 4, 0,12, 0.00,60.00,Wednesday
2695,-6.1311453710876029
1929,18.00049302728708
3063,1886722.838544937
3064,0.0
2,4, 1, 4, 0,13, 0.00,60.00,Wednesday
2695,-6.132907190319519
1929,18.000478830581149
3063,1852060.9029245633
3064,0.0
2,4, 1, 4, 0,14, 0.00,60.00,Wednesday
2695,-6.133454549749181
1929,18.00041447857745
3063,1767321.0395518714
3064,0.0
2,4, 1, 4, 0,15, 0.00,60.00,Wednesday
2695,-6.127950290545855
1929,18.000295719485164
3063,1562461.6976910702
3064,0.0
2,4, 1, 4, 0,16, 0.00,60.00,Wednesday
2695,-6.117385853571304
1929,18.000227666110538
3063,1395349.4316754339
3064,0.0
2,4, 1, 4, 0,17, 0.00,60.00,Wednesday
2695,-6.1066412613339529
1929,18.000226611717698
3063,1308791.5437535209
3064,0.0
2,4, 1, 4, 0,18, 0.00,60.00,Wednesday
2695,-6.100683541096189
1929,18.000250809161245
3063,1312074.7397904932
3064,0.0
2,4, 1, 4, 0,19, 0.00,60.00,Wednesday
2695,-6.620571244575957
1929,18.000405343119814
3063,1783803.483353235
3064,0.0
2,4, 1, 4, 0,20, 0.00,60.00,Wednesday
2695,-6.632659268501531
1929,18.000276180382828
3063,1845011.4886119818
3064,0.0
2,4, 1, 4, 0,21, 0.00,60.00,Wednesday
2695,-6.641326157345283
1929,18.000255886062818
3063,1966961.258832085
3064,0.0
2,4, 1, 4, 0,22, 0.00,60.00,Wednesday
2695,-6.648046791363909
1929,18.000192526429826
3063,1983074.4228889917
3064,0.0
2,4, 1, 4, 0,23, 0.00,60.00,Wednesday
2695,-6.6530826981114219
1929,18.0001475702786
3063,1991169.0069605078
3064,0.0
2,4, 1, 4, 0,24, 0.00,60.00,Wednesday
2695,-6.657360238318714
1929,18.000131056675046
3063,1994237.225096033
3064,0.0
2,5, 1, 5, 0, 1, 0.00,60.00,Thursday
2695,-6.662001198654662
1929,18.000118364146585
3063,2000989.6012685297
3064,0.0
2,5, 1, 5, 0, 2, 0.00,60.00,Thursday
2695,-6.66628337706955
1929,18.00011247343268
3063,2008853.1617241214
3064,0.0
2,5, 1, 5, 0, 3, 0.00,60.00,Thursday
2695,-6.6702670041884419
1929,18.00012704172868
3063,2013355.3686493454
3064,0.0
2,5, 1, 5, 0, 4, 0.00,60.00,Thursday
2695,-6.674846672084421
1929,18.000158529262956
3063,2015306.4971155253
3064,0.0
2,5, 1, 5, 0, 5, 0.00,60.00,Thursday
2695,-6.68017357271379
1929,18.000163757620599
3063,2026754.1506174757
3064,0.0
2,5, 1, 5, 0, 6, 0.00,60.00,Thursday
2695,-6.685431377685645
1929,18.00015085884444
3063,2042487.552361253
3064,0.0
2,5, 1, 5, 0, 7, 0.00,60.00,Thursday
2695,-6.702175903163575
1929,18.00016310723544
3063,2049100.1679311146
3064,0.0
2,5, 1, 5, 0, 8, 0.00,60.00,Thursday
2695,-6.706236660764508
1929,18.000155608956019
3063,2061803.4253929179
3064,0.0
2,5, 1, 5, 0, 9, 0.00,60.00,Thursday
2695,-6.1710542622389019
1929,18.00022635070829
3063,1995475.714231569
3064,0.0
2,5, 1, 5, 0,10, 0.00,60.00,Thursday
2695,-6.153623406991438
1929,18.000366540564717
3063,1854370.3476337672
3064,0.0
2,5, 1, 5, 0,11, 0.00,60.00,Thursday
2695,-6.143923518896698
1929,18.00042370928096
3063,1762343.0016915326
3064,0.0
2,5, 1, 5, 0,12, 0.00,60.00,Thursday
2695,-6.14005068012321
1929,18.000416945979067
3063,1700304.3842201294
3064,0.0
2,5, 1, 5, 0,13, 0.00,60.00,Thursday
2695,-6.1380858468209
1929,18.000391159130034
3063,1680681.2081508144
3064,0.0
2,5, 1, 5, 0,14, 0.00,60.00,Thursday
2695,-6.134090196807499
1929,18.000365180224468
3063,1617856.3684306408
3064,0.0
2,5, 1, 5, 0,15, 0.00,60.00,Thursday
2695,-6.1284830046675
1929,18.00032140481999
3063,1482117.6113302976
3064,0.0
2,5, 1, 5, 0,16, 0.00,60.00,Thursday
2695,-6.123267410450509
1929,18.000296326777755
3063,1388717.3461213567
3064,0.0
2,5, 1, 5, 0,17, 0.00,60.00,Thursday
2695,-6.118613797201438
1929,18.00026380329742
3063,1295729.307199366
3064,0.0
2,5, 1, 5, 0,18, 0.00,60.00,Thursday
2695,-6.114157918847748
1929,18.00023850656106
3063,1210993.5732057088
3064,0.0
2,5, 1, 5, 0,19, 0.00,60.00,Thursday
2695,-6.636674633670907
1929,18.000376862244868
3063,1611395.382899485
3064,0.0
2,5, 1, 5, 0,20, 0.00,60.00,Thursday
2695,-6.649315827484514
1929,18.000259550590039
3063,1649271.028162268
3064,0.0
2,5, 1, 5, 0,21, 0.00,60.00,Thursday
2695,-6.658648901947835
1929,18.00026830681325
3063,1819267.4428057324
3064,0.0
2,5, 1, 5, 0,22, 0.00,60.00,Thursday
2695,-6.666243185998056
1929,18.00023488157302
3063,1834751.7770991515
3064,0.0
2,5, 1, 5, 0,23, 0.00,60.00,Thursday
2695,-6.672760911087781
1929,18.000186634005457
3063,1851536.402621488
3064,0.0
2,5, 1, 5, 0,24, 0.00,60.00,Thursday
2695,-6.677816934917345
1929,18.000092306548177
3063,1881307.5124139572
3064,0.0
2,6, 1, 6, 0, 1, 0.00,60.00,Friday
2695,-6.680210505391911
1929,18.000037690057018
3063,1897907.4940975114
3064,0.0
2,6, 1, 6, 0, 2, 0.00,60.00,Friday
2695,-6.681727843514728
1929,18.000004602644809
3063,1916264.9865073828
3064,0.0
2,6, 1, 6, 0, 3, 0.00,60.00,Friday
2695,-6.682189212847336
1929,18.000000505555446
3063,1936559.9960313882
3064,0.0
2,6, 1, 6, 0, 4, 0.00,60.00,Friday
2695,-6.681696676308658
1929,18.000000523206
3063,1952666.2255502416
3064,0.0
2,6, 1, 6, 0, 5, 0.00,60.00,Friday
2695,-6.680693854010838
1929,18.000000534625035
3063,1965757.6102783182
3064,0.0
2,6, 1, 6, 0, 6, 0.00,60.00,Friday
2695,-6.679570775941586
1929,18.000000541111225
3063,1978542.2025930919
3064,0.0
2,6, 1, 6, 0, 7, 0.00,60.00,Friday
2695,-6.675807887119324
1929,18.000000547697586
3063,1980162.9526569828
3064,0.0
2,6, 1, 6, 0, 8, 0.00,60.00,Friday
2695,-6.674406865140192
1929,18.00001934755522
3063,1974984.6264664173
3064,0.0
2,6, 1, 6, 0, 9, 0.00,60.00,Friday
2695,-6.140818599222176
1929,18.0001671391851
3063,1855132.9753831167
3064,0.0
2,6, 1, 6, 0,10, 0.00,60.00,Friday
2695,-6.121561679295056
1929,18.000297495196393
3063,1576590.1522125055
3064,0.0
2,6, 1, 6, 0,11, 0.00,60.00,Friday
2695,-6.1126840210944028
1929,18.000307100914097
3063,1386242.9922881975
3064,0.0
2,6, 1, 6, 0,12, 0.00,60.00,Friday
2695,-6.1104204506690229
1929,18.000241315652724
3063,1222125.5866054507
3064,0.0
2,6, 1, 6, 0,13, 0.00,60.00,Friday
2695,-6.109436195516213
1929,18.000215144811503
3063,1151283.3667120983
3064,0.0
2,6, 1, 6, 0,14, 0.00,60.00,Friday
2695,-6.107060033820193
1929,18.000169524620266
3063,967661.059241548
3064,0.0
2,6, 1, 6, 0,15, 0.00,60.00,Friday
2695,-6.082034301575873
1929,18.13398513518787
3063,539140.4581334884
3064,0.0
2,6, 1, 6, 0,16, 0.00,60.00,Friday
2695,-6.021607103215199
1929,18.38417170074659
3063,239741.18839746133
3064,0.0
2,6, 1, 6, 0,17, 0.00,60.00,Friday
2695,-5.975236192530595
1929,18.505446566080314
3063,77225.5422328779
3064,0.0
2,6, 1, 6, 0,18, 0.00,60.00,Friday
2695,-5.961721582862519
1929,18.48612534909248
3063,53298.72407415558
3064,0.0
2,6, 1, 6, 0,19, 0.00,60.00,Friday
2695,-6.527593805268403
1929,18.016169247448418
3063,976044.0928801484
3064,0.0
2,6, 1, 6, 0,20, 0.00,60.00,Friday
2695,-6.557960807550635
1929,18.00019074198382
3063,968138.9372441754
3064,0.0
2,6, 1, 6, 0,21, 0.00,60.00,Friday
2695,-6.565244368440241
1929,18.00026242718787
3063,1234417.1262566685
3064,0.0
2,6, 1, 6, 0,22, 0.00,60.00,Friday
2695,-6.56949942996727
1929,18.000220096064319
3063,1194386.6377875368
3064,0.0
2,6, 1, 6, 0,23, 0.00,60.00,Friday
2695,-6.573198645284407
1929,18.000206527235819
3063,1159965.2924004128
3064,0.0
2,6, 1, 6, 0,24, 0.00,60.00,Friday
2695,-6.577361851433229
1929,18.00020530691133
3063,1137111.8584474535
3064,0.0
2,7, 1, 7, 0, 1, 0.00,60.00,Saturday
2695,-6.582231749752071
1929,18.000192765606394
3063,1129410.805106383
3064,0.0
2,7, 1, 7, 0, 2, 0.00,60.00,Saturday
2695,-6.587427757837091
1929,18.00019595283369
3063,1128374.9121285945
3064,0.0
2,7, 1, 7, 0, 3, 0.00,60.00,Saturday
2695,-6.593367207463004
1929,18.00021402873587
3063,1132065.4989273346
3064,0.0
2,7, 1, 7, 0, 4, 0.00,60.00,Saturday
2695,-6.600477196097852
1929,18.000238529151436
3063,1139967.2436185939
3064,0.0
2,7, 1, 7, 0, 5, 0.00,60.00,Saturday
2695,-6.609069627790678
1929,18.00026970621947
3063,1129455.527914199
3064,0.0
2,7, 1, 7, 0, 6, 0.00,60.00,Saturday
2695,-6.62467754613728
1929,18.00023232975081
3063,1084188.3231959507
3064,0.0
2,7, 1, 7, 0, 7, 0.00,60.00,Saturday
2695,-6.4350731431933039
1929,18.000152443113707
3063,1163663.556671767
3064,0.0
2,7, 1, 7, 0, 8, 0.00,60.00,Saturday
2695,-6.447892315792317
1929,18.00009005904953
3063,1245477.273123304
3064,0.0
2,7, 1, 7, 0, 9, 0.00,60.00,Saturday
2695,-5.974924982046763
1929,18.000055165919567
3063,1312953.2917822856
3064,0.0
2,7, 1, 7, 0,10, 0.00,60.00,Saturday
2695,-5.980413727526849
1929,18.000044503215809
3063,1366417.5578304374
3064,0.0
2,7, 1, 7, 0,11, 0.00,60.00,Saturday
2695,-5.985268708292221
1929,18.000033085721019
3063,1425518.7963831139
3064,0.0
2,7, 1, 7, 0,12, 0.00,60.00,Saturday
2695,-5.989222509191905
1929,18.000022694036855
3063,1480234.674500171
3064,0.0
2,7, 1, 7, 0,13, 0.00,60.00,Saturday
2695,-5.991997802928947
1929,18.00000144647569
3063,1530396.304472291
3064,0.0
2,7, 1, 7, 0,14, 0.00,60.00,Saturday
2695,-5.992562128408042
1929,18.000000285608406
3063,1571511.4791201144
3064,0.0
2,7, 1, 7, 0,15, 0.00,60.00,Saturday
2695,-5.989918174330114
1929,18.00000018738452
3063,1596571.8324953458
3064,0.0
2,7, 1, 7, 0,16, 0.00,60.00,Saturday
2695,-5.983239313633132
1929,18.000000128524776
3063,1580849.5938013753
3064,0.0
2,7, 1, 7, 0,17, 0.00,60.00,Saturday
2695,-5.97398965338904
1929,18.000000113441759
3063,1491600.3015458007
3064,0.0
2,7, 1, 7, 0,18, 0.00,60.00,Saturday
2695,-5.965866876303354
1929,18.00000011694602
3063,1373294.6628000548
3064,0.0
2,7, 1, 7, 0,19, 0.00,60.00,Saturday
2695,-6.438163848980397
1929,18.000000124433816
3063,1256813.9441637502
3064,0.0
2,7, 1, 7, 0,20, 0.00,60.00,Saturday
2695,-6.430976877252853
1929,18.000000134521306
3063,1151224.8024906815
3064,0.0
2,7, 1, 7, 0,21, 0.00,60.00,Saturday
2695,-6.424703959481451
1929,18.000000147255368
3063,1060674.2985245402
3064,0.0
2,7, 1, 7, 0,22, 0.00,60.00,Saturday
2695,-6.419773243431384
1929,18.00000016211257
3063,989913.4318516548
3064,0.0
2,7, 1, 7, 0,23, 0.00,60.00,Saturday
2695,-6.416280012523871
1929,18.000003267797785
3063,939389.7128266131
3064,0.0
2,7, 1, 7, 0,24, 0.00,60.00,Saturday
2695,-6.41442820717906
1929,18.00003633396557
3063,907063.1234343068
3064,0.0
2,8, 1, 8, 0, 1, 0.00,60.00,Sunday
2695,-6.414021947620185
1929,18.000039887688403
3063,895893.8813655869
3064,0.0
2,8, 1, 8, 0, 2, 0.00,60.00,Sunday
2695,-6.414117788843434
1929,18.000033320074409
3063,898474.4668359214
3064,0.0
2,8, 1, 8, 0, 3, 0.00,60.00,Sunday
2695,-6.414701839861094
1929,18.000035783845
3063,909649.6422450875
3064,0.0
2,8, 1, 8, 0, 4, 0.00,60.00,Sunday
2695,-6.415865219452855
1929,18.000039047324959
3063,929019.1056011571
3064,0.0
2,8, 1, 8, 0, 5, 0.00,60.00,Sunday
2695,-6.417505713832465
1929,18.00003210660606
3063,957137.2958707709
3064,0.0
2,8, 1, 8, 0, 6, 0.00,60.00,Sunday
2695,-6.419365703473986
1929,18.00003779863607
3063,987640.7480771868
3064,0.0
2,8, 1, 8, 0, 7, 0.00,60.00,Sunday
2695,-6.632633949610397
1929,18.000048867800538
3063,1020688.2636614367
3064,0.0
2,8, 1, 8, 0, 8, 0.00,60.00,Sunday
2695,-6.635608764231058
1929,18.000053714068508
3063,1057857.860721512
3064,0.0
2,8, 1, 8, 0, 9, 0.00,60.00,Sunday
2695,-6.1238466375245859
1929,18.000047894599225
3063,1099920.572469767
3064,0.0
2,8, 1, 8, 0,10, 0.00,60.00,Sunday
2695,-6.1264450038839659
1929,18.000034640056449
3063,1145464.4505156922
3064,0.0
2,8, 1, 8, 0,11, 0.00,60.00,Sunday
2695,-6.128747399885884
1929,18.00000701150077
3063,1195790.6963589648
3064,0.0
2,8, 1, 8, 0,12, 0.00,60.00,Sunday
2695,-6.130413230589805
1929,18.000000266049434
3063,1241145.3518248203
3064,0.0
2,8, 1, 8, 0,13, 0.00,60.00,Sunday
2695,-6.13186682225582
1929,18.00000083726939
3063,1276858.6995478923
3064,0.0
2,8, 1, 8, 0,14, 0.00,60.00,Sunday
2695,-6.133083468893909
1929,18.00000022323413
3063,1306538.473450935
3064,0.0
2,8, 1, 8, 0,15, 0.00,60.00,Sunday
2695,-6.133463568941068
1929,18.000000185524116
3063,1324472.3345921036
3064,0.0
2,8, 1, 8, 0,16, 0.00,60.00,Sunday
2695,-6.132610845622779
1929,18.000000167573356
3063,1323502.9045311008
3064,0.0
2,8, 1, 8, 0,17, 0.00,60.00,Sunday
2695,-6.130389903095445
1929,18.000000156049056
3063,1298555.0437462528
3064,0.0
2,8, 1, 8, 0,18, 0.00,60.00,Sunday
2695,-6.127122465362835
1929,18.000000153598277
3063,1254334.1808748085
3064,0.0
2,8, 1, 8, 0,19, 0.00,60.00,Sunday
2695,-6.63837580874947
1929,18.00000016146102
3063,1191103.6179311588
3064,0.0
2,8, 1, 8, 0,20, 0.00,60.00,Sunday
2695,-6.634159419847538
1929,18.000000172882
3063,1125144.4606870423
3064,0.0
2,8, 1, 8, 0,21, 0.00,60.00,Sunday
2695,-6.6307448908254769
1929,18.00000018246932
3063,1077120.005693504
3064,0.0
2,8, 1, 8, 0,22, 0.00,60.00,Sunday
2695,-6.627397283273535
1929,18.000000186072488
3063,1052400.8626717006
3064,0.0
2,8, 1, 8, 0,23, 0.00,60.00,Sunday
2695,-6.623644782063365
1929,18.00000019328372
3063,1034475.6976108054
3064,0.0
2,8, 1, 8, 0,24, 0.00,60.00,Sunday
2695,-6.620891165852747
1929,18.000000215598499
3063,1020506.3585678702
3064,0.0
2,9, 1, 9, 0, 1, 0.00,60.00,Monday
2695,-6.620234021010116
1929,18.000015907323264
3063,1013619.3176192192
3064,0.0
2,9, 1, 9, 0, 2, 0.00,60.00,Monday
2695,-6.621308971885816
1929,18.000047548907703
3063,1019994.9617869486
3064,0.0
2,9, 1, 9, 0, 3, 0.00,60.00,Monday
2695,-6.623061538724316
1929,18.00004934972914
3063,1039770.1154459046
3064,0.0
2,9, 1, 9, 0, 4, 0.00,60.00,Monday
2695,-6.625094251834031
1929,18.00003357054333
3063,1069365.4523854389
3064,0.0
2,9, 1, 9, 0, 5, 0.00,60.00,Monday
2695,-6.626999000360598
1929,18.0000146796442
3063,1104591.5502334904