Program Version,EnergyPlus, Version 8.7.0-78a111df4a, YMD=2019.05.28 05:48
1,5,Environment Title[],Latitude[deg],Longitude[deg],Time Zone[],Elevation[m]
2,6,Day of Simulation[],Month[],Day of Month[],DST Indicator[1=yes 0=no],Hour[],StartMinute[],EndMinute[],DayType
3,3,Cumulative Day of Simulation[],Month[],Day of Month[],DST Indicator[1=yes 0=no],DayType  ! When Daily Report Variables Requested
4,2,Cumulative Days of Simulation[],Month[]  ! When Monthly Report Variables Requested
5,1,Cumulative Days of Simulation[] ! When Run Period Report Variables Requested
4826,1,BEDROOM2.2,Zone Ideal Loads Zone Total Heating Energy [J] !Hourly
4827,1,BEDROOM2.2,Zone Ideal Loads Zone Total Cooling Energy [J] !Hourly
4973,1,BEDROOM2.2,Zone Thermal Comfort Fanger Model PMV [] !Hourly
End of Data Dictionary
1,RUNPERIOD,  29.58, 106.47,   8.00, 259.10
2,1, 1, 1, 0, 1, 0.00,60.00,Thursday
4973,-1.0567245732887354
4826,2262476.4060660407
4827,6.923218362234449e-8
2,1, 1, 1, 0, 2, 0.00,60.00,Thursday
4973,-1.0500887842015927
4826,2278717.838376514
4827,5.289848559186794e-8
2,1, 1, 1, 0, 3, 0.00,60.00,Thursday
4973,-1.042517317808434
4826,2216656.9261366676
4827,6.926939022378065e-8
2,1, 1, 1, 0, 4, 0.00,60.00,Thursday
4973,-1.0359421014344628
4826,2183918.840377701
4827,3.34580363414716e-8
2,1, 1, 1, 0, 5, 0.00,60.00,Thursday
4973,-1.0331401087446622
4826,2204963.1680124087
4827,8.031975085032173e-8
2,1, 1, 1, 0, 6, 0.00,60.00,Thursday
4973,-1.0333686050044575
4826,2231115.7294852409
4827,7.325979822780937e-8
2,1, 1, 1, 0, 7, 0.00,60.00,Thursday
4973,-1.0357422050418382
4826,2252621.1735486018
4827,9.607674655853771e-8
2,1, 1, 1, 0, 8, 0.00,60.00,Thursday
4973,-1.6496885110529965
4826,0.0
4827,0.0
2,1, 1, 1, 0, 9, 0.00,60.00,Thursday
4973,-2.0322792251004295
4826,0.0
4827,0.0
2,1, 1, 1, 0,10, 0.00,60.00,Thursday
4973,-2.0677549490117856
4826,0.0
4827,0.0
2,1, 1, 1, 0,11, 0.00,60.00,Thursday
4973,-2.0705749442484624
4826,0.0
4827,0.0
2,1, 1, 1, 0,12, 0.00,60.00,Thursday
4973,-2.061785878534141
4826,0.0
4827,0.0
2,1, 1, 1, 0,13, 0.00,60.00,Thursday
4973,-2.0399825544066809
4826,0.0
4827,0.0
2,1, 1, 1, 0,14, 0.00,60.00,Thursday
4973,-2.0008661256778628
4826,0.0
4827,0.0
2,1, 1, 1, 0,15, 0.00,60.00,Thursday
4973,-1.9529999810047767
4826,0.0
4827,0.0
2,1, 1, 1, 0,16, 0.00,60.00,Thursday
4973,-1.8928111684264862
4826,0.0
4827,0.0
2,1, 1, 1, 0,17, 0.00,60.00,Thursday
4973,-1.825236853988377
4826,0.0
4827,0.0
2,1, 1, 1, 0,18, 0.00,60.00,Thursday
4973,-1.767831890348841
4826,0.0
4827,0.0
2,1, 1, 1, 0,19, 0.00,60.00,Thursday
4973,-1.723082092322795
4826,0.0
4827,0.0
2,1, 1, 1, 0,20, 0.00,60.00,Thursday
4973,-1.6981424666822094
4826,0.0
4827,0.0
2,1, 1, 1, 0,21, 0.00,60.00,Thursday
4973,-1.738754977399911
4826,0.0
4827,0.0
2,1, 1, 1, 0,22, 0.00,60.00,Thursday
4973,-1.2391112006729613
4826,2849461.3262682978
4827,9.123027666646522e-8
2,1, 1, 1, 0,23, 0.00,60.00,Thursday
4973,-1.0644097703986422
4826,2131007.8472638439
4827,7.806875146343373e-8
2,1, 1, 1, 0,24, 0.00,60.00,Thursday
4973,-1.0611519758036559
4826,2037453.2040370277
4827,1.5654677554266528e-8
2,2, 1, 2, 0, 1, 0.00,60.00,Friday
4973,-1.0595265320755699
4826,2235968.9430678898
4827,1.0840825449453075e-7
2,2, 1, 2, 0, 2, 0.00,60.00,Friday
4973,-1.0585093673524884
4826,2240740.175567625
4827,4.4713033275911587e-8
2,2, 1, 2, 0, 3, 0.00,60.00,Friday
4973,-1.058095728438173
4826,2249117.7104088778
4827,1.6984813555609436e-8
2,2, 1, 2, 0, 4, 0.00,60.00,Friday
4973,-1.055334123174559
4826,2247360.24961119
4827,2.2612312022829429e-8
2,2, 1, 2, 0, 5, 0.00,60.00,Friday
4973,-1.0516335513175235
4826,2237732.2779644096
4827,2.9774582799291239e-8
2,2, 1, 2, 0, 6, 0.00,60.00,Friday
4973,-1.0478918197018073
4826,2231880.674997226
4827,5.218225851422176e-8
2,2, 1, 2, 0, 7, 0.00,60.00,Friday
4973,-1.0441646460815913
4826,2221277.38791241
4827,4.73733052785974e-8
2,2, 1, 2, 0, 8, 0.00,60.00,Friday
4973,-1.6190085181116043
4826,0.0
4827,0.0
2,2, 1, 2, 0, 9, 0.00,60.00,Friday
4973,-1.9538070700297
4826,0.0
4827,0.0
2,2, 1, 2, 0,10, 0.00,60.00,Friday
4973,-1.9307403705661952
4826,0.0
4827,0.0
2,2, 1, 2, 0,11, 0.00,60.00,Friday
4973,-1.9087696488055506
4826,0.0
4827,0.0
2,2, 1, 2, 0,12, 0.00,60.00,Friday
4973,-1.8911681974736068
4826,0.0
4827,0.0
2,2, 1, 2, 0,13, 0.00,60.00,Friday
4973,-1.8729994213258297
4826,0.0
4827,0.0
2,2, 1, 2, 0,14, 0.00,60.00,Friday
4973,-1.8549064718513407
4826,0.0
4827,0.0
2,2, 1, 2, 0,15, 0.00,60.00,Friday
4973,-1.8264092151597496
4826,0.0
4827,0.0
2,2, 1, 2, 0,16, 0.00,60.00,Friday
4973,-1.7918686950347336
4826,0.0
4827,0.0
2,2, 1, 2, 0,17, 0.00,60.00,Friday
4973,-1.7718721018336075
4826,0.0
4827,0.0
2,2, 1, 2, 0,18, 0.00,60.00,Friday
4973,-1.796789191715156
4826,0.0
4827,0.0
2,2, 1, 2, 0,19, 0.00,60.00,Friday
4973,-1.8420242812496804
4826,0.0
4827,0.0
2,2, 1, 2, 0,20, 0.00,60.00,Friday
4973,-1.8697579190112126
4826,0.0
4827,0.0
2,2, 1, 2, 0,21, 0.00,60.00,Friday
4973,-1.8984949698817276
4826,0.0
4827,0.0
2,2, 1, 2, 0,22, 0.00,60.00,Friday
4973,-1.289798857838052
4826,3140450.3260596308
4827,6.464460966526531e-8
2,2, 1, 2, 0,23, 0.00,60.00,Friday
4973,-1.074260998573729
4826,2175800.427019665
4827,2.2509993868879975e-9
2,2, 1, 2, 0,24, 0.00,60.00,Friday
4973,-1.0578559214499102
4826,2067454.8392705008
4827,3.243485480197705e-8
2,3, 1, 3, 0, 1, 0.00,60.00,Saturday
4973,-1.051576510314862
4826,2279286.8381103605
4827,8.191374366684945e-8
2,3, 1, 3, 0, 2, 0.00,60.00,Saturday
4973,-1.0498078861999232
4826,2317627.8402030968
4827,6.384652806445956e-8
2,3, 1, 3, 0, 3, 0.00,60.00,Saturday
4973,-1.0526088363901825
4826,2334341.2716356355
4827,3.4071945265168327e-8
2,3, 1, 3, 0, 4, 0.00,60.00,Saturday
4973,-1.054756006925413
4826,2334294.7307784135
4827,5.780975698144175e-8
2,3, 1, 3, 0, 5, 0.00,60.00,Saturday
4973,-1.055045869286529
4826,2322257.9607455416
4827,9.638370102038607e-8
2,3, 1, 3, 0, 6, 0.00,60.00,Saturday
4973,-1.053868177091149
4826,2296462.9063511386
4827,8.359393177670427e-8
2,3, 1, 3, 0, 7, 0.00,60.00,Saturday
4973,-1.0504722655679575
4826,2250017.5266069837
4827,1.4222223398974166e-8
2,3, 1, 3, 0, 8, 0.00,60.00,Saturday
4973,-1.0452623051858417
4826,2199836.400247284
4827,8.865526979207061e-8
2,3, 1, 3, 0, 9, 0.00,60.00,Saturday
4973,-1.0407766391464058
4826,2202140.1045600736
4827,5.218225851422176e-8
2,3, 1, 3, 0,10, 0.00,60.00,Saturday
4973,-1.0356332001960012
4826,2147101.852673226
4827,3.969944373238832e-8
2,3, 1, 3, 0,11, 0.00,60.00,Saturday
4973,-1.0312661369517727
4826,2152145.52600442
4827,5.4637894209008667e-8
2,3, 1, 3, 0,12, 0.00,60.00,Saturday
4973,-1.0279037708993757
4826,2106970.309033742
4827,4.021103450213559e-8
2,3, 1, 3, 0,13, 0.00,60.00,Saturday
4973,-1.0237783545617503
4826,2064808.5467640307
4827,3.70391717297025e-8
2,3, 1, 3, 0,14, 0.00,60.00,Saturday
4973,-1.019527879904739
4826,2026444.1298089945
4827,1.545004124636762e-8
2,3, 1, 3, 0,15, 0.00,60.00,Saturday
4973,-1.0149719430677607
4826,1959929.2438682542
4827,1.5756995708215983e-8
2,3, 1, 3, 0,16, 0.00,60.00,Saturday
4973,-1.0086640816870598
4826,1942144.1193727733
4827,1.1664269550237805e-8
2,3, 1, 3, 0,17, 0.00,60.00,Saturday
4973,-1.003850292287635
4826,1971500.5891281963
4827,4.184812496532686e-8
2,3, 1, 3, 0,18, 0.00,60.00,Saturday
4973,-0.9998917440190891
4826,1956765.3818278018
4827,7.9705841926625e-8
2,3, 1, 3, 0,19, 0.00,60.00,Saturday
4973,-0.9938237411154443
4826,1926015.2057058493
4827,6.517666406580247e-8
2,3, 1, 3, 0,20, 0.00,60.00,Saturday
4973,-0.9869837849794629
4826,1786702.5265929986
4827,5.445883743959712e-8
2,3, 1, 3, 0,21, 0.00,60.00,Saturday
4973,-0.979303984440689
4826,1717411.1614856213
4827,2.4351720639970155e-8
2,3, 1, 3, 0,22, 0.00,60.00,Saturday
4973,-0.9715445126825842
4826,1691996.424054854
4827,3.632294465205632e-8
2,3, 1, 3, 0,23, 0.00,60.00,Saturday
4973,-0.9655661794717293
4826,1682057.3420161289
4827,4.072262527188286e-8
2,3, 1, 3, 0,24, 0.00,60.00,Saturday
4973,-0.9598110012319272
4826,1617749.1122372915
4827,6.256755114009138e-8
2,4, 1, 4, 0, 1, 0.00,60.00,Sunday
4973,-0.9563873207588467
4826,1755022.9228236867
4827,6.011769776329743
2,4, 1, 4, 0, 2, 0.00,60.00,Sunday
4973,-0.9524248422975202
4826,1757323.538356176
4827,1.1613110473263078e-7
2,4, 1, 4, 0, 3, 0.00,60.00,Sunday
4973,-0.9494079683367406
4826,1739318.794552878
4827,3.821583050012123e-8
2,4, 1, 4, 0, 4, 0.00,60.00,Sunday
4973,-0.9463905518040965
4826,1726562.233783047
4827,8.789129424258135e-8
2,4, 1, 4, 0, 5, 0.00,60.00,Sunday
4973,-0.9429894722244469
4826,1717847.6669323464
4827,3.079776433878578e-8
2,4, 1, 4, 0, 6, 0.00,60.00,Sunday
4973,-0.9395646319160498
4826,1715069.0748147423
4827,7.980816008057445e-8
2,4, 1, 4, 0, 7, 0.00,60.00,Sunday
4973,-0.9366019153840991
4826,1711444.4080508333
4827,1.5859313862165437e-8
2,4, 1, 4, 0, 8, 0.00,60.00,Sunday
4973,-0.9340160292152053
4826,1700472.1625052798
4827,2.3954385142133107e-8
2,4, 1, 4, 0, 9, 0.00,60.00,Sunday
4973,-0.9332801342379673
4826,1738237.3076461643
4827,9.750920071383007e-8
2,4, 1, 4, 0,10, 0.00,60.00,Sunday
4973,-0.9325706907088474
4826,1706978.1146086609
4827,1.5552359400317074e-8
2,4, 1, 4, 0,11, 0.00,60.00,Sunday
4973,-0.9320130537457999
4826,1731897.8274303154
4827,7.643166100024246e-8
2,4, 1, 4, 0,12, 0.00,60.00,Sunday
4973,-0.9334789212025005
4826,1694085.7141753527
4827,5.60191892873263e-8
2,4, 1, 4, 0,13, 0.00,60.00,Sunday
4973,-0.9332389702909669
4826,1645882.9923266464
4827,5.60191892873263e-8
2,4, 1, 4, 0,14, 0.00,60.00,Sunday
4973,-0.9325498237307826
4826,1586249.6111736249
4827,3.125819603155833e-8
2,4, 1, 4, 0,15, 0.00,60.00,Sunday
4973,-0.9291760938427734
4826,1477521.004839021
4827,3.5146285881637598e-8
2,4, 1, 4, 0,16, 0.00,60.00,Sunday
4973,-0.9212430171200006
4826,1424518.9299149232
4827,9.464429240324535e-9
2,4, 1, 4, 0,17, 0.00,60.00,Sunday
4973,-0.9134077041838653
4826,1459964.1606660365
4827,3.7346126191550869e-9
2,4, 1, 4, 0,18, 0.00,60.00,Sunday
4973,-0.9099354030656572
4826,1475742.0284946729
4827,3.3867308957269418e-8
2,4, 1, 4, 0,19, 0.00,60.00,Sunday
4973,-0.9073578169554033
4826,1495727.6760702246
4827,5.709352990379557e-8
2,4, 1, 4, 0,20, 0.00,60.00,Sunday
4973,-0.9043141606646391
4826,1404200.882665597
4827,1.3275780474941712e-8
2,4, 1, 4, 0,21, 0.00,60.00,Sunday
4973,-0.9028568075703864
4826,1375508.4715626203
4827,2.752358341240324e-8
2,4, 1, 4, 0,22, 0.00,60.00,Sunday
4973,-0.9013813973324767
4826,1375415.1967688874
4827,2.276578925375361e-8
2,4, 1, 4, 0,23, 0.00,60.00,Sunday
4973,-0.8995397759195374
4826,1372348.5766591845
4827,6.12885742157232e-8
2,4, 1, 4, 0,24, 0.00,60.00,Sunday
4973,-0.8976086863575297
4826,1308479.493173041
4827,5.8270188674214299e-8
2,5, 1, 5, 0, 1, 0.00,60.00,Monday
4973,-0.8980009036998069
4826,1444029.7368730873
4827,0.5444968007128637
2,5, 1, 5, 0, 2, 0.00,60.00,Monday
4973,-0.8972145544296284
4826,1439383.1951583625
4827,7.04972080711741e-8
2,5, 1, 5, 0, 3, 0.00,60.00,Monday
4973,-0.8976604051387304
4826,1455959.6825761947
4827,3.309992280264851e-8
2,5, 1, 5, 0, 4, 0.00,60.00,Monday
4973,-0.8999222174302872
4826,1475940.9600955654
4827,3.934133019356523e-8
2,5, 1, 5, 0, 5, 0.00,60.00,Monday
4973,-0.9032805244020483
4826,1489335.614855442
4827,4.9675463742460127e-8
2,5, 1, 5, 0, 6, 0.00,60.00,Monday
4973,-0.906393352248226
4826,1504735.7532183594
4827,3.0951241569709967e-8
2,5, 1, 5, 0, 7, 0.00,60.00,Monday
4973,-0.9092882991496614
4826,1520717.0374861598
4827,4.553157850750722e-8
2,5, 1, 5, 0, 8, 0.00,60.00,Monday
4973,-1.4114865879549652
4826,0.0
4827,0.0
2,5, 1, 5, 0, 9, 0.00,60.00,Monday
4973,-1.684800278420963
4826,0.0
4827,0.0
2,5, 1, 5, 0,10, 0.00,60.00,Monday
4973,-1.7041486842903476
4826,0.0
4827,0.0
2,5, 1, 5, 0,11, 0.00,60.00,Monday
4973,-1.713388716283469
4826,0.0
4827,0.0
2,5, 1, 5, 0,12, 0.00,60.00,Monday
4973,-1.7198606615884594
4826,0.0
4827,0.0
2,5, 1, 5, 0,13, 0.00,60.00,Monday
4973,-1.721646304999033
4826,0.0
4827,0.0
2,5, 1, 5, 0,14, 0.00,60.00,Monday
4973,-1.7162690753382289
4826,0.0
4827,0.0
2,5, 1, 5, 0,15, 0.00,60.00,Monday
4973,-1.7090486347482763
4826,0.0
4827,0.0
2,5, 1, 5, 0,16, 0.00,60.00,Monday
4973,-1.7011361187869847
4826,0.0
4827,0.0
2,5, 1, 5, 0,17, 0.00,60.00,Monday
4973,-1.6983267116616375
4826,0.0
4827,0.0
2,5, 1, 5, 0,18, 0.00,60.00,Monday
4973,-1.697544169002971
4826,0.0
4827,0.0
2,5, 1, 5, 0,19, 0.00,60.00,Monday
4973,-1.7006848525460674
4826,0.0
4827,0.0
2,5, 1, 5, 0,20, 0.00,60.00,Monday
4973,-1.694097529730459
4826,0.0
4827,0.0
2,5, 1, 5, 0,21, 0.00,60.00,Monday
4973,-1.7089767533467562
4826,0.0
4827,0.0
2,5, 1, 5, 0,22, 0.00,60.00,Monday
4973,-1.187951118739987
4826,2556237.0141425209
4827,1.9674075701914263e-8
2,5, 1, 5, 0,23, 0.00,60.00,Monday
4973,-1.0062018382665017
4826,1746014.084760761
4827,2.3993607101147064e-8
2,5, 1, 5, 0,24, 0.00,60.00,Monday
4973,-0.9950635683155322
4826,1642354.7272708775
4827,3.417426341911778e-8
2,6, 1, 6, 0, 1, 0.00,60.00,Tuesday
4973,-0.9866633163663191
4826,1833584.9363660173
4827,5.367069328617049
2,6, 1, 6, 0, 2, 0.00,60.00,Tuesday
4973,-0.979682450671334
4826,1835070.3438512849
4827,4.645244189305231e-8
2,6, 1, 6, 0, 3, 0.00,60.00,Tuesday
4973,-0.9719828019462204
4826,1792699.7946871254
4827,6.886011760798283e-8
2,6, 1, 6, 0, 4, 0.00,60.00,Tuesday
4973,-0.9648127181397439
4826,1764352.2409834115
4827,2.36866526392987e-8
2,6, 1, 6, 0, 5, 0.00,60.00,Tuesday
4973,-0.9583619264100168
4826,1754116.9139576373
4827,5.494484867085703e-8
2,6, 1, 6, 0, 6, 0.00,60.00,Tuesday
4973,-0.9522460873242635
4826,1739057.0755991038
4827,7.474341146007646e-8
2,6, 1, 6, 0, 7, 0.00,60.00,Tuesday
4973,-0.9472059442977259
4826,1726064.6396870637
4827,4.6554760047001767e-8
2,6, 1, 6, 0, 8, 0.00,60.00,Tuesday
4973,-1.4415326893553165
4826,0.0
4827,0.0
2,6, 1, 6, 0, 9, 0.00,60.00,Tuesday
4973,-1.728198937936076
4826,0.0
4827,0.0
2,6, 1, 6, 0,10, 0.00,60.00,Tuesday
4973,-1.7280799110463346
4826,0.0
4827,0.0
2,6, 1, 6, 0,11, 0.00,60.00,Tuesday
4973,-1.7092677490929523
4826,0.0
4827,0.0
2,6, 1, 6, 0,12, 0.00,60.00,Tuesday
4973,-1.6862250179282948
4826,0.0
4827,0.0
2,6, 1, 6, 0,13, 0.00,60.00,Tuesday
4973,-1.6537873984100922
4826,0.0
4827,0.0
2,6, 1, 6, 0,14, 0.00,60.00,Tuesday
4973,-1.6030029843205412
4826,0.0
4827,0.0
2,6, 1, 6, 0,15, 0.00,60.00,Tuesday
4973,-1.558634133221785
4826,0.0
4827,0.0
2,6, 1, 6, 0,16, 0.00,60.00,Tuesday
4973,-1.505133854108708
4826,0.0
4827,0.0
2,6, 1, 6, 0,17, 0.00,60.00,Tuesday
4973,-1.4708378731310777
4826,0.0
4827,0.0
2,6, 1, 6, 0,18, 0.00,60.00,Tuesday
4973,-1.4858434737508215
4826,0.0
4827,0.0
2,6, 1, 6, 0,19, 0.00,60.00,Tuesday
4973,-1.5224348398580126
4826,0.0
4827,0.0
2,6, 1, 6, 0,20, 0.00,60.00,Tuesday
4973,-1.5451115283663777
4826,0.0
4827,0.0
2,6, 1, 6, 0,21, 0.00,60.00,Tuesday
4973,-1.5781816000411229
4826,0.0
4827,0.0
2,6, 1, 6, 0,22, 0.00,60.00,Tuesday
4973,-1.1216335781792589
4826,2279063.5600610279
4827,2.3379698177450338e-8
2,6, 1, 6, 0,23, 0.00,60.00,Tuesday
4973,-0.9628425054724636
4826,1605308.0317576973
4827,2.921183295256924e-8
2,6, 1, 6, 0,24, 0.00,60.00,Tuesday
4973,-0.9539290534807997
4826,1518111.6908178407
4827,5.269384928396903e-8
2,7, 1, 7, 0, 1, 0.00,60.00,Wednesday
4973,-0.9504302097551879
4826,1722782.8085269402
4827,4.027827214615952e-8
2,7, 1, 7, 0, 2, 0.00,60.00,Wednesday
4973,-0.9490001152375376
4826,1745274.314894801
4827,2.5221424948540517e-8
2,7, 1, 7, 0, 3, 0.00,60.00,Wednesday
4973,-0.9497715101042488
4826,1782517.2086517739
4827,1.7701040633255617e-8
2,7, 1, 7, 0, 4, 0.00,60.00,Wednesday
4973,-0.9523240432973267
4826,1836048.8655190319
4827,8.589609024056699e-8
2,7, 1, 7, 0, 5, 0.00,60.00,Wednesday
4973,-0.9570889302455832
4826,1905941.661242399
4827,4.461071512196213e-8
2,7, 1, 7, 0, 6, 0.00,60.00,Wednesday
4973,-0.963548104119213
4826,1973427.039855014
4827,4.225739758112468e-8
2,7, 1, 7, 0, 7, 0.00,60.00,Wednesday
4973,-0.9698619927789889
4826,2027658.537008401
4827,1.3679937183042058e-7
2,7, 1, 7, 0, 8, 0.00,60.00,Wednesday
4973,-1.6018531908552894
4826,0.0
4827,0.0
2,7, 1, 7, 0, 9, 0.00,60.00,Wednesday
4973,-1.9381699418045649
4826,0.0
4827,0.0
2,7, 1, 7, 0,10, 0.00,60.00,Wednesday
4973,-1.9601418818315053
4826,0.0
4827,0.0
2,7, 1, 7, 0,11, 0.00,60.00,Wednesday
4973,-1.957484949989308
4826,0.0
4827,0.0
2,7, 1, 7, 0,12, 0.00,60.00,Wednesday
4973,-1.9316848672216274
4826,0.0
4827,0.0
2,7, 1, 7, 0,13, 0.00,60.00,Wednesday
4973,-1.8761821829275785
4826,0.0
4827,0.0
2,7, 1, 7, 0,14, 0.00,60.00,Wednesday
4973,-1.7920848741278884
4826,0.0
4827,0.0
2,7, 1, 7, 0,15, 0.00,60.00,Wednesday
4973,-1.6881515905854126
4826,0.0
4827,0.0
2,7, 1, 7, 0,16, 0.00,60.00,Wednesday
4973,-1.5642281901800983
4826,0.0
4827,0.0
2,7, 1, 7, 0,17, 0.00,60.00,Wednesday
4973,-1.4833620832201387
4826,0.0
4827,0.0
2,7, 1, 7, 0,18, 0.00,60.00,Wednesday
4973,-1.5014827482649627
4826,0.0
4827,0.0
2,7, 1, 7, 0,19, 0.00,60.00,Wednesday
4973,-1.5355234222251167
4826,0.0
4827,0.0
2,7, 1, 7, 0,20, 0.00,60.00,Wednesday
4973,-1.5575977256853373
4826,0.0
4827,0.0
2,7, 1, 7, 0,21, 0.00,60.00,Wednesday
4973,-1.5833680651364417
4826,0.0
4827,0.0
2,7, 1, 7, 0,22, 0.00,60.00,Wednesday
4973,-1.1452569502132835
4826,2213971.819176323
4827,4.1970906750066209e-8
2,7, 1, 7, 0,23, 0.00,60.00,Wednesday
4973,-0.9945586088112639
4826,1595896.5610851055
4827,5.484253051690757e-8
2,7, 1, 7, 0,24, 0.00,60.00,Wednesday
4973,-0.9851797105192961
4826,1514336.9186811427
4827,1.6933654478634709e-8
2,8, 1, 8, 0, 1, 0.00,60.00,Thursday
4973,-0.9806027532437072
4826,1721812.4639700982
4827,5.2407008647256037e-8
2,8, 1, 8, 0, 2, 0.00,60.00,Thursday
4973,-0.9763154590753613
4826,1733676.8950413368
4827,8.129177331284154e-8
2,8, 1, 8, 0, 3, 0.00,60.00,Thursday
4973,-0.9727324764786852
4826,1760039.5479923685
4827,3.028617356903851e-8
2,8, 1, 8, 0, 4, 0.00,60.00,Thursday
4973,-0.9697150794970452
4826,1783035.5771365017
4827,3.3867308957269418e-8
2,8, 1, 8, 0, 5, 0.00,60.00,Thursday
4973,-0.9671320876286811
4826,1794869.1268417754
4827,2.9262992029543967e-8
2,8, 1, 8, 0, 6, 0.00,60.00,Thursday
4973,-0.9644018200150113
4826,1805438.5819700557
4827,1.984972186619416e-8
2,8, 1, 8, 0, 7, 0.00,60.00,Thursday
4973,-0.9624886832456265
4826,1805779.1727966695
4827,2.956994649139233e-8
2,8, 1, 8, 0, 8, 0.00,60.00,Thursday
4973,-1.4804768940719726
4826,0.0
4827,0.0
2,8, 1, 8, 0, 9, 0.00,60.00,Thursday
4973,-1.77082469948884
4826,0.0
4827,0.0
2,8, 1, 8, 0,10, 0.00,60.00,Thursday
4973,-1.7723225367554299
4826,0.0
4827,0.0
2,8, 1, 8, 0,11, 0.00,60.00,Thursday
4973,-1.7583479735012882
4826,0.0
4827,0.0
2,8, 1, 8, 0,12, 0.00,60.00,Thursday
4973,-1.7337333190545586
4826,0.0
4827,0.0
2,8, 1, 8, 0,13, 0.00,60.00,Thursday
4973,-1.7041667101083078
4826,0.0
4827,0.0
2,8, 1, 8, 0,14, 0.00,60.00,Thursday
4973,-1.6741034780214384
4826,0.0
4827,0.0
2,8, 1, 8, 0,15, 0.00,60.00,Thursday
4973,-1.6476391327153844
4826,0.0
4827,0.0
2,8, 1, 8, 0,16, 0.00,60.00,Thursday
4973,-1.6266166454348948
4826,0.0
4827,0.0
2,8, 1, 8, 0,17, 0.00,60.00,Thursday
4973,-1.6108997277270687
4826,0.0
4827,0.0
2,8, 1, 8, 0,18, 0.00,60.00,Thursday
4973,-1.6143340609769777
4826,0.0
4827,0.0
2,8, 1, 8, 0,19, 0.00,60.00,Thursday
4973,-1.634127528924265
4826,0.0
4827,0.0
2,8, 1, 8, 0,20, 0.00,60.00,Thursday
4973,-1.6500530306634587
4826,0.0
4827,0.0
2,8, 1, 8, 0,21, 0.00,60.00,Thursday
4973,-1.6645898958286268
4826,0.0
4827,0.0
2,8, 1, 8, 0,22, 0.00,60.00,Thursday
4973,-1.168979322085317
4826,2397153.558901176
4827,1.0580890830169665e-7
2,8, 1, 8, 0,23, 0.00,60.00,Thursday
4973,-0.9964623465750856
4826,1654482.7017828443
4827,4.901039574178867e-8
2,8, 1, 8, 0,24, 0.00,60.00,Thursday
4973,-0.9820091892463839
4826,1568779.6863548228
4827,1.7291768017457799e-8
2,9, 1, 9, 0, 1, 0.00,60.00,Friday
4973,-0.9758837223946747
4826,1788607.67116163
4827,5.224779085567986e-8
2,9, 1, 9, 0, 2, 0.00,60.00,Friday
4973,-0.97318552117608
4826,1818046.7777546307
4827,1.4478018783847802e-8
2,9, 1, 9, 0, 3, 0.00,60.00,Friday
4973,-0.9713191525064449
4826,1826830.242014708
4827,3.70391717297025e-8
2,9, 1, 9, 0, 4, 0.00,60.00,Friday
4973,-0.9683814107352544
4826,1816825.6570380196
4827,6.446043698815629e-8
2,9, 1, 9, 0, 5, 0.00,60.00,Friday
4973,-0.9645757798216859
4826,1804993.5582354472
4827,1.0032294994744007e-7
2,9, 1, 9, 0, 6, 0.00,60.00,Friday
4973,-0.9607584999953015
4826,1796251.1108184029
4827,3.207674126315396e-8
2,9, 1, 9, 0, 7, 0.00,60.00,Friday
4973,-0.9578204694847718
4826,1787596.2044271024
4827,7.535732038377319e-8
2,9, 1, 9, 0, 8, 0.00,60.00,Friday
4973,-1.4600457083592593
4826,0.0
4827,0.0
2,9, 1, 9, 0, 9, 0.00,60.00,Friday
4973,-1.759243269115008
4826,0.0
4827,0.0
2,9, 1, 9, 0,10, 0.00,60.00,Friday
4973,-1.7822058523357936
4826,0.0
4827,0.0
2,9, 1, 9, 0,11, 0.00,60.00,Friday
4973,-1.7841828206904962
4826,0.0
4827,0.0
2,9, 1, 9, 0,12, 0.00,60.00,Friday
4973,-1.780934236935134
4826,0.0
4827,0.0
2,9, 1, 9, 0,13, 0.00,60.00,Friday
4973,-1.7773587088394516
4826,0.0
4827,0.0
2,9, 1, 9, 0,14, 0.00,60.00,Friday
4973,-1.7686733578535299
4826,0.0
4827,0.0
2,9, 1, 9, 0,15, 0.00,60.00,Friday
4973,-1.7641519497520722
4826,0.0
4827,0.0
2,9, 1, 9, 0,16, 0.00,60.00,Friday
4973,-1.7600305125003213
4826,0.0
4827,0.0
2,9, 1, 9, 0,17, 0.00,60.00,Friday
4973,-1.7629482185500296
4826,0.0
4827,0.0
2,9, 1, 9, 0,18, 0.00,60.00,Friday
4973,-1.7722889578079573
4826,0.0
4827,0.0
2,9, 1, 9, 0,19, 0.00,60.00,Friday
4973,-1.779223158001467
4826,0.0
4827,0.0
2,9, 1, 9, 0,20, 0.00,60.00,Friday
4973,-1.7704734382699897
4826,0.0
4827,0.0
2,9, 1, 9, 0,21, 0.00,60.00,Friday
4973,-1.7695911653583532
4826,0.0
4827,0.0
2,9, 1, 9, 0,22, 0.00,60.00,Friday
4973,-1.2163789734933544
4826,2701420.945260043
4827,7.196547358034877e-8
2,9, 1, 9, 0,23, 0.00,60.00,Friday
4973,-1.0284612914332506
4826,1846239.601683854
4827,2.972342372231651e-8
2,9, 1, 9, 0,24, 0.00,60.00,Friday
4973,-1.0148527043029459
4826,1709202.4269176019
4827,6.226059667824302e-8
2,10, 1,10, 0, 1, 0.00,60.00,Saturday
4973,-1.0069658559440984
4826,1867475.3370799034
4827,2.021508426302684
2,10, 1,10, 0, 2, 0.00,60.00,Saturday
4973,-1.0008527189335437
4826,1844289.1223621495
4827,0.0
2,10, 1,10, 0, 3, 0.00,60.00,Saturday
4973,-0.9949676960637611
4826,1807008.9528417004
4827,4.742446435557213e-8
2,10, 1,10, 0, 4, 0.00,60.00,Saturday
4973,-0.9894762946504071
4826,1780404.3482418047
4827,6.497202775790356e-8
2,10, 1,10, 0, 5, 0.00,60.00,Saturday
4973,-0.9839315429040846
4826,1765259.9241465368
4827,5.218225851422176e-9
2,10, 1,10, 0, 6, 0.00,60.00,Saturday
4973,-0.978960733487178
4826,1758010.777113698
4827,6.011191544530448e-8
2,10, 1,10, 0, 7, 0.00,60.00,Saturday
4973,-0.9748210232789267
4826,1749867.4935335397
4827,4.1950443119276319e-9
2,10, 1,10, 0, 8, 0.00,60.00,Saturday
4973,-0.9716313267577893
4826,1735443.8875410977
4827,2.7721398510038854e-8
2,10, 1,10, 0, 9, 0.00,60.00,Saturday
4973,-0.9689365620882795
4826,1785626.4759485634
4827,7.735252438578755e-8
2,10, 1,10, 0,10, 0.00,60.00,Saturday
4973,-0.965066252690173
4826,1751115.2516642935
4827,1.4938450476620347e-8
2,10, 1,10, 0,11, 0.00,60.00,Saturday
4973,-0.9610068493100736
4826,1749188.9908859763
4827,9.346763363282662e-8
2,10, 1,10, 0,12, 0.00,60.00,Saturday
4973,-0.9573531369892383
4826,1675304.1679432854
4827,0.0
2,10, 1,10, 0,13, 0.00,60.00,Saturday
4973,-0.9530519888473484
4826,1590533.1643408365
4827,3.3509195418446328e-8
2,10, 1,10, 0,14, 0.00,60.00,Saturday
4973,-0.9499132433002107
4826,1510408.285465669
4827,7.397602530545555e-8
2,10, 1,10, 0,15, 0.00,60.00,Saturday
4973,-0.940439127894363
4826,1350180.330127934
4827,4.051798896398395e-8
2,10, 1,10, 0,16, 0.00,60.00,Saturday
4973,-0.9238472566529925
4826,1252784.7584995104
4827,7.008793545537628e-9
2,10, 1,10, 0,17, 0.00,60.00,Saturday
4973,-0.9084590600791856
4826,1284705.0676249893
4827,2.7625901566352696e-8
2,10, 1,10, 0,18, 0.00,60.00,Saturday
4973,-0.9010187234263758
4826,1312631.6250224242
4827,4.824300958716776e-8
2,10, 1,10, 0,19, 0.00,60.00,Saturday
4973,-0.9004882204760496
4826,1360461.3690814705
4827,7.136691237974446e-8
2,10, 1,10, 0,20, 0.00,60.00,Saturday
4973,-0.9003926789445234
4826,1281511.8032809767
4827,4.4713033275911587e-8
2,10, 1,10, 0,21, 0.00,60.00,Saturday
4973,-0.9001804814805644
4826,1264429.018356674
4827,6.99344582244521e-8
2,10, 1,10, 0,22, 0.00,60.00,Saturday
4973,-0.8958431541077414
4826,1254069.752641475
4827,2.992806003021542e-8
2,10, 1,10, 0,23, 0.00,60.00,Saturday
4973,-0.8896424332281034
4826,1257245.5245410144
4827,1.4836132322670892e-8
2,10, 1,10, 0,24, 0.00,60.00,Saturday
4973,-0.884048655632391
4826,1240102.7436515745
4827,9.346763363282662e-8
2,11, 1,11, 0, 1, 0.00,60.00,Sunday
4973,-0.8856302342871136
4826,1446151.1484848993
4827,5.328623891338274e-8
2,11, 1,11, 0, 2, 0.00,60.00,Sunday
4973,-0.8912838589310403
4826,1515525.6153778467
4827,2.404476617812179e-8
2,11, 1,11, 0, 3, 0.00,60.00,Sunday
4973,-0.8981861085758471
4826,1552390.7378382669
4827,3.228137757105287e-8
2,11, 1,11, 0, 4, 0.00,60.00,Sunday
4973,-0.9021298115632016
4826,1567155.6464183198
4827,2.7830537874251605e-8
2,11, 1,11, 0, 5, 0.00,60.00,Sunday
4973,-0.9035577265953237
4826,1582574.2495862717
4827,1.304556462855544e-8
2,11, 1,11, 0, 6, 0.00,60.00,Sunday
4973,-0.9058569523617401
4826,1603330.4018400945
4827,1.3301360013429076e-8
2,11, 1,11, 0, 7, 0.00,60.00,Sunday
4973,-0.9090962043355807
4826,1621980.2814661326
4827,1.979856278921943e-8
2,11, 1,11, 0, 8, 0.00,60.00,Sunday
4973,-0.9107835406572729
4826,1607448.4773162767
4827,7.470589480362833e-8
2,11, 1,11, 0, 9, 0.00,60.00,Sunday
4973,-0.9092606036562556
4826,1584639.8042180958
4827,4.077378434885759e-8
2,11, 1,11, 0,10, 0.00,60.00,Sunday
4973,-0.9033432970220776
4826,1501539.7590374463
4827,3.105355972365942e-8
2,11, 1,11, 0,11, 0.00,60.00,Sunday
4973,-0.8957141950129908
4826,1495993.5634878106
4827,2.900719664467033e-8
2,11, 1,11, 0,12, 0.00,60.00,Sunday
4973,-0.8893252654112948
4826,1451608.7706168369
4827,4.880575943388976e-8
2,11, 1,11, 0,13, 0.00,60.00,Sunday
4973,-0.8845408769296501
4826,1415144.9781490106
4827,1.580815478519071e-8
2,11, 1,11, 0,14, 0.00,60.00,Sunday
4973,-0.8806062510526258
4826,1391141.013416969
4827,4.7066350816749039e-8
2,11, 1,11, 0,15, 0.00,60.00,Sunday
4973,-0.8768011208539808
4826,1298153.8039208553
4827,7.535732038377319e-8
2,11, 1,11, 0,16, 0.00,60.00,Sunday
4973,-0.8728420242140804
4826,1266375.3368934338
4827,2.4556356947869064e-8
2,11, 1,11, 0,17, 0.00,60.00,Sunday
4973,-0.8711052119791399
4826,1306241.6361438125
4827,2.6500401872908698e-8
2,11, 1,11, 0,18, 0.00,60.00,Sunday
4973,-0.8711778551137301
4826,1298972.9630211574
4827,7.223661668831483e-8
2,11, 1,11, 0,19, 0.00,60.00,Sunday
4973,-0.8694637657990416
4826,1279924.7180458806
4827,2.9774582799291239e-8
2,11, 1,11, 0,20, 0.00,60.00,Sunday
4973,-0.8671666196201461
4826,1140952.8714341294
4827,2.7856117412738969e-8
2,11, 1,11, 0,21, 0.00,60.00,Sunday
4973,-0.8650408758251711
4826,1087663.60476216
4827,3.8471625884994867e-8
2,11, 1,11, 0,22, 0.00,60.00,Sunday
4973,-0.8624421299292873
4826,1071160.7713186148
4827,4.2666670196922499e-8
2,11, 1,11, 0,23, 0.00,60.00,Sunday
4973,-0.86172267763518
4826,1060182.3592758612
4827,4.368985173641704e-8
2,11, 1,11, 0,24, 0.00,60.00,Sunday
4973,-0.861283751597502
4826,1000387.6715952474
4827,4.645244189305231e-8
2,12, 1,12, 0, 1, 0.00,60.00,Monday
4973,-0.862445282958099
4826,1143264.7476682985
4827,4.22765822349902e-8
2,12, 1,12, 0, 2, 0.00,60.00,Monday
4973,-0.8639288679429393
4826,1155961.7562755473
4827,3.320224095659796e-8
2,12, 1,12, 0, 3, 0.00,60.00,Monday
4973,-0.8661356453695241
4826,1189434.6837037369
4827,4.45595560449874e-8
2,12, 1,12, 0, 4, 0.00,60.00,Monday
4973,-0.8678150422291608
4826,1219779.5291783284
4827,3.304876372567378e-8
2,12, 1,12, 0, 5, 0.00,60.00,Monday
4973,-0.8679819461952099
4826,1247770.9734388744
4827,2.4863311409717427e-8
2,12, 1,12, 0, 6, 0.00,60.00,Monday
4973,-0.8665641477671016
4826,1273509.1039225115
4827,4.7066350816749039e-8
2,12, 1,12, 0, 7, 0.00,60.00,Monday
4973,-0.8640198608947136
4826,1291181.4211980017
4827,3.87274212698685e-8
2,12, 1,12, 0, 8, 0.00,60.00,Monday
4973,-1.3071010397840062
4826,0.0
4827,0.0
2,12, 1,12, 0, 9, 0.00,60.00,Monday
4973,-1.544419955415859
4826,0.0
4827,0.0
2,12, 1,12, 0,10, 0.00,60.00,Monday
4973,-1.5466258126840274
4826,0.0
4827,0.0
2,12, 1,12, 0,11, 0.00,60.00,Monday
4973,-1.5469237416382529
4826,0.0
4827,0.0
2,12, 1,12, 0,12, 0.00,60.00,Monday
4973,-1.5513824862480406
4826,0.0
4827,0.0
2,12, 1,12, 0,13, 0.00,60.00,Monday
4973,-1.5527195474990499
4826,0.0
4827,0.0
2,12, 1,12, 0,14, 0.00,60.00,Monday
4973,-1.5572647105743609
4826,0.0
4827,0.0
2,12, 1,12, 0,15, 0.00,60.00,Monday
4973,-1.5549619700175619
4826,0.0
4827,0.0
2,12, 1,12, 0,16, 0.00,60.00,Monday
4973,-1.5464617041970939
4826,0.0
4827,0.0
2,12, 1,12, 0,17, 0.00,60.00,Monday
4973,-1.5365100184751342
4826,0.0
4827,0.0
2,12, 1,12, 0,18, 0.00,60.00,Monday
4973,-1.5283545413626954
4826,0.0
4827,0.0
2,12, 1,12, 0,19, 0.00,60.00,Monday
4973,-1.5284820789032699
4826,0.0
4827,0.0
2,12, 1,12, 0,20, 0.00,60.00,Monday
4973,-1.5236990217312144
4826,0.0
4827,0.0
2,12, 1,12, 0,21, 0.00,60.00,Monday
4973,-1.5277748158972658
4826,0.0
4827,0.0
2,12, 1,12, 0,22, 0.00,60.00,Monday
4973,-1.08081549914152
4826,2013168.4741213585
4827,3.816126081801485e-8
2,12, 1,12, 0,23, 0.00,60.00,Monday
4973,-0.9293596812485254
4826,1334624.944572839
4827,2.077058525173925e-8
2,12, 1,12, 0,24, 0.00,60.00,Monday
4973,-0.9187030271071273
4826,1225310.0007981512
4827,9.822542779147625e-9
2,13, 1,13, 0, 1, 0.00,60.00,Tuesday
4973,-0.912280325686876
4826,1404120.285781122
4827,4.335421147540877
2,13, 1,13, 0, 2, 0.00,60.00,Tuesday
4973,-0.9067856819821126
4826,1395649.2115406695
4827,5.8679461290012117e-8
2,13, 1,13, 0, 3, 0.00,60.00,Tuesday
4973,-0.9022116469918113
4826,1391393.8213090688
4827,9.72022462519817e-8
2,13, 1,13, 0, 4, 0.00,60.00,Tuesday
4973,-0.8980647599921965
4826,1387018.6849969747
4827,4.297362465877086e-9
2,13, 1,13, 0, 5, 0.00,60.00,Tuesday
4973,-0.894047761102647
4826,1386633.7875924856
4827,5.4228621593210849e-8
2,13, 1,13, 0, 6, 0.00,60.00,Tuesday
4973,-0.8901853048150155
4826,1390668.4623540159
4827,7.842686500225682e-8
2,13, 1,13, 0, 7, 0.00,60.00,Tuesday
4973,-0.8876405012699344
4826,1393426.7998134036
4827,4.957314558851067e-8