Program Version,EnergyPlus, Version 8.7.0-78a111df4a, YMD=2019.05.28 05:48
1,5,Environment Title[],Latitude[deg],Longitude[deg],Time Zone[],Elevation[m]
2,6,Day of Simulation[],Month[],Day of Month[],DST Indicator[1=yes 0=no],Hour[],StartMinute[],EndMinute[],DayType
3,3,Cumulative Day of Simulation[],Month[],Day of Month[],DST Indicator[1=yes 0=no],DayType  ! When Daily Report Variables Requested
4,2,Cumulative Days of Simulation[],Month[]  ! When Monthly Report Variables Requested
5,1,Cumulative Days of Simulation[] ! When Run Period Report Variables Requested
4826,1,BEDROOM2.2,Zone Ideal Loads Zone Total Heating Energy [J] !Hourly
4827,1,BEDROOM2.2,Zone Ideal Loads Zone Total Cooling Energy [J] !Hourly
4973,1,BEDROOM2.2,Zone Thermal Comfort Fanger Model PMV [] !Hourly
End of Data Dictionary
1,RUNPERIOD,  29.58, 106.47,   8.00, 259.10
2,1, 1, 1, 0, 1, 0.00,60.00,Thursday
4973,-1.077956103230584
4826,2364942.6668982489
4827,7.084508979460225e-8
2,1, 1, 1, 0, 2, 0.00,60.00,Thursday
4973,-1.0702182190777586
4826,2373118.8848322227
4827,7.070184437907301e-8
2,1, 1, 1, 0, 3, 0.00,60.00,Thursday
4973,-1.0620793451185882
4826,2307702.9121881586
4827,9.965788194676861e-8
2,1, 1, 1, 0, 4, 0.00,60.00,Thursday
4973,-1.0552521766372399
4826,2274128.023527188
4827,3.049080987693742e-8
2,1, 1, 1, 0, 5, 0.00,60.00,Thursday
4973,-1.0515518163789442
4826,2289599.3458909469
4827,8.021743269637227e-8
2,1, 1, 1, 0, 6, 0.00,60.00,Thursday
4973,-1.0509443067279625
4826,2310136.4733857137
4827,1.4723582353326493e-7
2,1, 1, 1, 0, 7, 0.00,60.00,Thursday
4973,-1.0523713140583655
4826,2325399.0889207546
4827,2.8342128643998877e-8
2,1, 1, 1, 0, 8, 0.00,60.00,Thursday
4973,-1.6703893789810809
4826,0.0
4827,0.0
2,1, 1, 1, 0, 9, 0.00,60.00,Thursday
4973,-2.058669648856116
4826,0.0
4827,0.0
2,1, 1, 1, 0,10, 0.00,60.00,Thursday
4973,-2.0964542107718198
4826,0.0
4827,0.0
2,1, 1, 1, 0,11, 0.00,60.00,Thursday
4973,-2.1036027036480067
4826,0.0
4827,0.0
2,1, 1, 1, 0,12, 0.00,60.00,Thursday
4973,-2.1002455065709277
4826,0.0
4827,0.0
2,1, 1, 1, 0,13, 0.00,60.00,Thursday
4973,-2.084463876917596
4826,0.0
4827,0.0
2,1, 1, 1, 0,14, 0.00,60.00,Thursday
4973,-2.05065445006527
4826,0.0
4827,0.0
2,1, 1, 1, 0,15, 0.00,60.00,Thursday
4973,-2.0067562883402378
4826,0.0
4827,0.0
2,1, 1, 1, 0,16, 0.00,60.00,Thursday
4973,-1.949242304331601
4826,0.0
4827,0.0
2,1, 1, 1, 0,17, 0.00,60.00,Thursday
4973,-1.8824327916983208
4826,0.0
4827,0.0
2,1, 1, 1, 0,18, 0.00,60.00,Thursday
4973,-1.823903419862218
4826,0.0
4827,0.0
2,1, 1, 1, 0,19, 0.00,60.00,Thursday
4973,-1.7759913038313536
4826,0.0
4827,0.0
2,1, 1, 1, 0,20, 0.00,60.00,Thursday
4973,-1.7475224746974854
4826,0.0
4827,0.0
2,1, 1, 1, 0,21, 0.00,60.00,Thursday
4973,-1.78710056109902
4826,0.0
4827,0.0
2,1, 1, 1, 0,22, 0.00,60.00,Thursday
4973,-1.2706266180558553
4826,2992922.786366631
4827,1.1116867426608224e-7
2,1, 1, 1, 0,23, 0.00,60.00,Thursday
4973,-1.0885360528564999
4826,2254544.851172658
4827,6.169784683152102e-8
2,1, 1, 1, 0,24, 0.00,60.00,Thursday
4973,-1.083886233032049
4826,2150984.4758006299
4827,5.913989298278466e-8
2,2, 1, 2, 0, 1, 0.00,60.00,Friday
4973,-1.080952424701623
4826,2340482.1551040636
4827,7.122304685419129e-8
2,2, 1, 2, 0, 2, 0.00,60.00,Friday
4973,-1.0786150900156933
4826,2335863.42400187
4827,2.9774582799291239e-8
2,2, 1, 2, 0, 3, 0.00,60.00,Friday
4973,-1.0771549263174483
4826,2337149.9799472985
4827,7.059952622512356e-8
2,2, 1, 2, 0, 4, 0.00,60.00,Friday
4973,-1.0736440848554117
4826,2330574.218262369
4827,2.5988811103161426e-8
2,2, 1, 2, 0, 5, 0.00,60.00,Friday
4973,-1.0693012637543964
4826,2316983.304421475
4827,9.853238225332461e-8
2,2, 1, 2, 0, 6, 0.00,60.00,Friday
4973,-1.064874741397667
4826,2306841.9216301154
4827,6.476739145000465e-8
2,2, 1, 2, 0, 7, 0.00,60.00,Friday
4973,-1.060554542096052
4826,2292541.90305815
4827,6.548361852765083e-8
2,2, 1, 2, 0, 8, 0.00,60.00,Friday
4973,-1.6401653884826555
4826,0.0
4827,0.0
2,2, 1, 2, 0, 9, 0.00,60.00,Friday
4973,-1.9817007825100755
4826,0.0
4827,0.0
2,2, 1, 2, 0,10, 0.00,60.00,Friday
4973,-1.9622989356369059
4826,0.0
4827,0.0
2,2, 1, 2, 0,11, 0.00,60.00,Friday
4973,-1.9457040507081478
4826,0.0
4827,0.0
2,2, 1, 2, 0,12, 0.00,60.00,Friday
4973,-1.9342668023941317
4826,0.0
4827,0.0
2,2, 1, 2, 0,13, 0.00,60.00,Friday
4973,-1.9214220872398072
4826,0.0
4827,0.0
2,2, 1, 2, 0,14, 0.00,60.00,Friday
4973,-1.9076726792456583
4826,0.0
4827,0.0
2,2, 1, 2, 0,15, 0.00,60.00,Friday
4973,-1.8827270480305809
4826,0.0
4827,0.0
2,2, 1, 2, 0,16, 0.00,60.00,Friday
4973,-1.8491679219740694
4826,0.0
4827,0.0
2,2, 1, 2, 0,17, 0.00,60.00,Friday
4973,-1.8281840258973806
4826,0.0
4827,0.0
2,2, 1, 2, 0,18, 0.00,60.00,Friday
4973,-1.8501202540693443
4826,0.0
4827,0.0
2,2, 1, 2, 0,19, 0.00,60.00,Friday
4973,-1.8908040803859545
4826,0.0
4827,0.0
2,2, 1, 2, 0,20, 0.00,60.00,Friday
4973,-1.9157055292614323
4826,0.0
4827,0.0
2,2, 1, 2, 0,21, 0.00,60.00,Friday
4973,-1.9421333600204248
4826,0.0
4827,0.0
2,2, 1, 2, 0,22, 0.00,60.00,Friday
4973,-1.3183137788694326
4826,3279828.4350873238
4827,4.868979885941371e-8
2,2, 1, 2, 0,23, 0.00,60.00,Friday
4973,-1.096603166443245
4826,2287151.658928267
4827,2.5988811103161426e-8
2,2, 1, 2, 0,24, 0.00,60.00,Friday
4973,-1.078852818032
4826,2169203.0658017254
4827,4.808953235624358e-8
2,3, 1, 3, 0, 1, 0.00,60.00,Saturday
4973,-1.0710753827623508
4826,2370484.5436084626
4827,8.101458413214212e-8
2,3, 1, 3, 0, 2, 0.00,60.00,Saturday
4973,-1.0681421569283694
4826,2401100.00042605
4827,1.0768985703180079e-7
2,3, 1, 3, 0, 3, 0.00,60.00,Saturday
4973,-1.0698166852544118
4826,2410550.087050147
4827,2.9672264645341785e-8
2,3, 1, 3, 0, 4, 0.00,60.00,Saturday
4973,-1.0711558655413223
4826,2405377.9344810887
4827,4.256435204297304e-8
2,3, 1, 3, 0, 5, 0.00,60.00,Saturday
4973,-1.070935088631623
4826,2390526.545680393
4827,2.997921910719015e-8
2,3, 1, 3, 0, 6, 0.00,60.00,Saturday
4973,-1.0690982359132142
4826,2360586.733645069
4827,9.24956111703068e-8
2,3, 1, 3, 0, 7, 0.00,60.00,Saturday
4973,-1.065471921464853
4826,2312902.240633245
4827,5.177298589842394e-8
2,3, 1, 3, 0, 8, 0.00,60.00,Saturday
4973,-1.0598934593000434
4826,2260572.2769004178
4827,7.358721632044763e-8
2,3, 1, 3, 0, 9, 0.00,60.00,Saturday
4973,-1.0551041259331478
4826,2260781.6456894765
4827,8.062670531217009e-8
2,3, 1, 3, 0,10, 0.00,60.00,Saturday
4973,-1.0501779880983433
4826,2207527.222080483
4827,9.280256563215517e-8
2,3, 1, 3, 0,11, 0.00,60.00,Saturday
4973,-1.0460925175757579
4826,2214705.6897054866
4827,4.96243046654854e-8
2,3, 1, 3, 0,12, 0.00,60.00,Saturday
4973,-1.0427330114711698
4826,2169255.7243537597
4827,8.093365977401845e-8
2,3, 1, 3, 0,13, 0.00,60.00,Saturday
4973,-1.0388708878108202
4826,2128562.3706458129
4827,0.0
2,3, 1, 3, 0,14, 0.00,60.00,Saturday
4973,-1.0348236611068427
4826,2091562.877920539
4827,4.276898835087195e-8
2,3, 1, 3, 0,15, 0.00,60.00,Saturday
4973,-1.0299644686501793
4826,2022603.1938706926
4827,3.92901711165905e-8
2,3, 1, 3, 0,16, 0.00,60.00,Saturday
4973,-1.0236257746910294
4826,2004386.8269976308
4827,5.105675882077776e-8
2,3, 1, 3, 0,17, 0.00,60.00,Saturday
4973,-1.0185993257884985
4826,2032692.0223245053
4827,7.663629730814137e-8
2,3, 1, 3, 0,18, 0.00,60.00,Saturday
4973,-1.0140955589790453
4826,2014329.8896804017
4827,1.8826540326699616e-8
2,3, 1, 3, 0,19, 0.00,60.00,Saturday
4973,-1.0075873752721343
4826,1980663.953280796
4827,3.1718627724330874e-9
2,3, 1, 3, 0,20, 0.00,60.00,Saturday
4973,-1.0003370833326402
4826,1838672.433723394
4827,4.072262527188286e-8
2,3, 1, 3, 0,21, 0.00,60.00,Saturday
4973,-0.9924598168992568
4826,1768071.9943620417
4827,1.6370904631912709e-8
2,3, 1, 3, 0,22, 0.00,60.00,Saturday
4973,-0.9844407381434714
4826,1741307.6943910353
4827,5.0954440666828307e-8
2,3, 1, 3, 0,23, 0.00,60.00,Saturday
4973,-0.9780235293559306
4826,1728567.1537353332
4827,5.090328158985358e-8
2,3, 1, 3, 0,24, 0.00,60.00,Saturday
4973,-0.9719189128745203
4826,1662143.8349324712
4827,5.177298589842394e-8
2,4, 1, 4, 0, 1, 0.00,60.00,Sunday
4973,-0.9682598103426001
4826,1798275.6987326763
4827,6.16158612066954
2,4, 1, 4, 0, 2, 0.00,60.00,Sunday
4973,-0.9639020091480814
4826,1798285.3764475806
4827,3.611830834415741e-8
2,4, 1, 4, 0, 3, 0.00,60.00,Sunday
4973,-0.9606625623846776
4826,1779018.963038233
4827,6.594405022042338e-8
2,4, 1, 4, 0, 4, 0.00,60.00,Sunday
4973,-0.957421530825803
4826,1765260.660374297
4827,7.975700100359973e-8
2,4, 1, 4, 0, 5, 0.00,60.00,Sunday
4973,-0.9539186436102857
4826,1756176.9696971197
4827,3.934133019356523e-8
2,4, 1, 4, 0, 6, 0.00,60.00,Sunday
4973,-0.9500976797224132
4826,1751049.237926015
4827,2.9314151106518694e-8
2,4, 1, 4, 0, 7, 0.00,60.00,Sunday
4973,-0.9467189912592506
4826,1744634.130999879
4827,7.448761607520282e-8
2,4, 1, 4, 0, 8, 0.00,60.00,Sunday
4973,-0.9440631975985487
4826,1733595.2864726885
4827,4.290200195100624e-8
2,4, 1, 4, 0, 9, 0.00,60.00,Sunday
4973,-0.9435287172977798
4826,1772988.7587156406
4827,8.502638593199663e-8
2,4, 1, 4, 0,10, 0.00,60.00,Sunday
4973,-0.9436765202277535
4826,1746847.8198898908
4827,7.985931915754918e-8
2,4, 1, 4, 0,11, 0.00,60.00,Sunday
4973,-0.9442602741524164
4826,1778028.092058627
4827,1.5347723092418165e-8
2,4, 1, 4, 0,12, 0.00,60.00,Sunday
4973,-0.9469544425434339
4826,1746523.773575047
4827,5.4791371439932848e-8
2,4, 1, 4, 0,13, 0.00,60.00,Sunday
4973,-0.9483236302186328
4826,1707166.1753167655
4827,2.1589130483334885e-8
2,4, 1, 4, 0,14, 0.00,60.00,Sunday
4973,-0.9488730833903996
4826,1654465.1202573158
4827,4.015987542516086e-8
2,4, 1, 4, 0,15, 0.00,60.00,Sunday
4973,-0.9461644372586702
4826,1548852.4767891416
4827,1.7035972632584163e-8
2,4, 1, 4, 0,16, 0.00,60.00,Sunday
4973,-0.9384403342661996
4826,1496641.2717170027
4827,1.156195139628835e-8
2,4, 1, 4, 0,17, 0.00,60.00,Sunday
4973,-0.930300191940767
4826,1530338.5457191603
4827,4.445723789103795e-8
2,4, 1, 4, 0,18, 0.00,60.00,Sunday
4973,-0.925884323852774
4826,1540962.8844347329
4827,4.312710188969504e-8
2,4, 1, 4, 0,19, 0.00,60.00,Sunday
4973,-0.9218357017535864
4826,1552277.4058175293
4827,7.019025360932574e-8
2,4, 1, 4, 0,20, 0.00,60.00,Sunday
4973,-0.9178242367415243
4826,1454737.1594411538
4827,3.1309355108533057e-8
2,4, 1, 4, 0,21, 0.00,60.00,Sunday
4973,-0.9155052913516526
4826,1420754.9021195609
4827,4.880575943388976e-8
2,4, 1, 4, 0,22, 0.00,60.00,Sunday
4973,-0.9133871516752739
4826,1416714.6849159045
4827,2.0668267097789795e-8
2,4, 1, 4, 0,23, 0.00,60.00,Sunday
4973,-0.9112702309695892
4826,1412409.0991704388
4827,2.956994649139233e-8
2,4, 1, 4, 0,24, 0.00,60.00,Sunday
4973,-0.908946952183739
4826,1346472.9665542418
4827,4.292246558179613e-8
2,5, 1, 5, 0, 1, 0.00,60.00,Monday
4973,-0.9088709037360692
4826,1479356.3781908518
4827,0.5505292527806205
2,5, 1, 5, 0, 2, 0.00,60.00,Monday
4973,-0.9080127026186839
4826,1474862.2237675584
4827,4.957314558851067e-8
2,5, 1, 5, 0, 3, 0.00,60.00,Monday
4973,-0.9081551446171147
4826,1490017.4413794627
4827,2.092406248266343e-8
2,5, 1, 5, 0, 4, 0.00,60.00,Monday
4973,-0.9100468027761408
4826,1507787.8310568317
4827,1.0999201549566351e-8
2,5, 1, 5, 0, 5, 0.00,60.00,Monday
4973,-0.9130822819108256
4826,1519436.6785762583
4827,8.410552254645154e-8
2,5, 1, 5, 0, 6, 0.00,60.00,Monday
4973,-0.915800089762326
4826,1532465.1163457288
4827,4.3996806198265406e-8
2,5, 1, 5, 0, 7, 0.00,60.00,Monday
4973,-0.9182314753583422
4826,1545547.800334607
4827,7.372022992058192e-8
2,5, 1, 5, 0, 8, 0.00,60.00,Monday
4973,-1.4221679383325508
4826,0.0
4827,0.0
2,5, 1, 5, 0, 9, 0.00,60.00,Monday
4973,-1.6990246833872476
4826,0.0
4827,0.0
2,5, 1, 5, 0,10, 0.00,60.00,Monday
4973,-1.7200361427624174
4826,0.0
4827,0.0
2,5, 1, 5, 0,11, 0.00,60.00,Monday
4973,-1.7317288512342267
4826,0.0
4827,0.0
2,5, 1, 5, 0,12, 0.00,60.00,Monday
4973,-1.7408583566893317
4826,0.0
4827,0.0
2,5, 1, 5, 0,13, 0.00,60.00,Monday
4973,-1.7453366222159835
4826,0.0
4827,0.0
2,5, 1, 5, 0,14, 0.00,60.00,Monday
4973,-1.74279834312124
4826,0.0
4827,0.0
2,5, 1, 5, 0,15, 0.00,60.00,Monday
4973,-1.7379465611521539
4826,0.0
4827,0.0
2,5, 1, 5, 0,16, 0.00,60.00,Monday
4973,-1.7307666455750795
4826,0.0
4827,0.0
2,5, 1, 5, 0,17, 0.00,60.00,Monday
4973,-1.7278994315359869
4826,0.0
4827,0.0
2,5, 1, 5, 0,18, 0.00,60.00,Monday
4973,-1.726646180514198
4826,0.0
4827,0.0
2,5, 1, 5, 0,19, 0.00,60.00,Monday
4973,-1.7278853524865439
4826,0.0
4827,0.0
2,5, 1, 5, 0,20, 0.00,60.00,Monday
4973,-1.7202748152844852
4826,0.0
4827,0.0
2,5, 1, 5, 0,21, 0.00,60.00,Monday
4973,-1.7344270610486803
4826,0.0
4827,0.0
2,5, 1, 5, 0,22, 0.00,60.00,Monday
4973,-1.2045897410131544
4826,2634230.9162717487
4827,4.488356353249401e-8
2,5, 1, 5, 0,23, 0.00,60.00,Monday
4973,-1.0193977622100512
4826,1800054.7041098974
4827,6.855316314613447e-8
2,5, 1, 5, 0,24, 0.00,60.00,Monday
4973,-1.0075168427416142
4826,1690636.530696264
4827,5.044284989708103e-8
2,6, 1, 6, 0, 1, 0.00,60.00,Tuesday
4973,-0.998452780162261
4826,1877286.0427167065
4827,5.494008430657686
2,6, 1, 6, 0, 2, 0.00,60.00,Tuesday
4973,-0.9911123650865172
4826,1876572.9158475046
4827,1.7189449863508345e-8
2,6, 1, 6, 0, 3, 0.00,60.00,Tuesday
4973,-0.9833096142762294
4826,1834011.439872672
4827,1.5654677554266528e-8
2,6, 1, 6, 0, 4, 0.00,60.00,Tuesday
4973,-0.9757782167960943
4826,1803639.73121356
4827,4.501998773775995e-9
2,6, 1, 6, 0, 5, 0.00,60.00,Tuesday
4973,-0.9688803929802213
4826,1790414.5136642126
4827,9.92486093309708e-8
2,6, 1, 6, 0, 6, 0.00,60.00,Tuesday
4973,-0.9625839030103368
4826,1774494.3557817839
4827,1.4171064321999438e-8
2,6, 1, 6, 0, 7, 0.00,60.00,Tuesday
4973,-0.9572748589277664
4826,1760085.803994682
4827,2.808633325912524e-8
2,6, 1, 6, 0, 8, 0.00,60.00,Tuesday
4973,-1.4541889962988564
4826,0.0
4827,0.0
2,6, 1, 6, 0, 9, 0.00,60.00,Tuesday
4973,-1.7450955843062972
4826,0.0
4827,0.0
2,6, 1, 6, 0,10, 0.00,60.00,Tuesday
4973,-1.7517482710237576
4826,0.0
4827,0.0
2,6, 1, 6, 0,11, 0.00,60.00,Tuesday
4973,-1.7387080225303263
4826,0.0
4827,0.0
2,6, 1, 6, 0,12, 0.00,60.00,Tuesday
4973,-1.7218548688602307
4826,0.0
4827,0.0
2,6, 1, 6, 0,13, 0.00,60.00,Tuesday
4973,-1.6969907688307849
4826,0.0
4827,0.0
2,6, 1, 6, 0,14, 0.00,60.00,Tuesday
4973,-1.6594883570584554
4826,0.0
4827,0.0
2,6, 1, 6, 0,15, 0.00,60.00,Tuesday
4973,-1.6177489388357223
4826,0.0
4827,0.0
2,6, 1, 6, 0,16, 0.00,60.00,Tuesday
4973,-1.56346075369511
4826,0.0
4827,0.0
2,6, 1, 6, 0,17, 0.00,60.00,Tuesday
4973,-1.5269030583062427
4826,0.0
4827,0.0
2,6, 1, 6, 0,18, 0.00,60.00,Tuesday
4973,-1.5405705445658385
4826,0.0
4827,0.0
2,6, 1, 6, 0,19, 0.00,60.00,Tuesday
4973,-1.5732495910125693
4826,0.0
4827,0.0
2,6, 1, 6, 0,20, 0.00,60.00,Tuesday
4973,-1.592288215051222
4826,0.0
4827,0.0
2,6, 1, 6, 0,21, 0.00,60.00,Tuesday
4973,-1.622555797854995
4826,0.0
4827,0.0
2,6, 1, 6, 0,22, 0.00,60.00,Tuesday
4973,-1.1496314097094916
4826,2406725.483770814
4827,4.313392309995834e-8
2,6, 1, 6, 0,23, 0.00,60.00,Tuesday
4973,-0.9845379803727598
4826,1703504.4790799614
4827,1.1715428627212532e-8
2,6, 1, 6, 0,24, 0.00,60.00,Tuesday
4973,-0.9742938471674557
4826,1606912.531929768
4827,1.9900880943168887e-8
2,7, 1, 7, 0, 1, 0.00,60.00,Wednesday
4973,-0.9696068901170214
4826,1803901.974547587
4827,5.201343356020516e-8
2,7, 1, 7, 0, 2, 0.00,60.00,Wednesday
4973,-0.9672167671448204
4826,1820326.7598104308
4827,5.325659913069103e-8
2,7, 1, 7, 0, 3, 0.00,60.00,Wednesday
4973,-0.9669175369231556
4826,1850787.4052671758
4827,4.7117509893723766e-8
2,7, 1, 7, 0, 4, 0.00,60.00,Wednesday
4973,-0.9684441201340427
4826,1897598.19939039
4827,4.5633896661456677e-8
2,7, 1, 7, 0, 5, 0.00,60.00,Wednesday
4973,-0.9719903939372343
4826,1959657.2175300713
4827,5.842366590513848e-8
2,7, 1, 7, 0, 6, 0.00,60.00,Wednesday
4973,-0.9772112922722449
4826,2018868.2905458683
4827,3.980176188633777e-8
2,7, 1, 7, 0, 7, 0.00,60.00,Wednesday
4973,-0.9825540495998735
4826,2066896.715471489
4827,5.944684744463302e-8
2,7, 1, 7, 0, 8, 0.00,60.00,Wednesday
4973,-1.6165806419770775
4826,0.0
4827,0.0
2,7, 1, 7, 0, 9, 0.00,60.00,Wednesday
4973,-1.9576152117428543
4826,0.0
4827,0.0
2,7, 1, 7, 0,10, 0.00,60.00,Wednesday
4973,-1.9839444021971405
4826,0.0
4827,0.0
2,7, 1, 7, 0,11, 0.00,60.00,Wednesday
4973,-1.9875948866331439
4826,0.0
4827,0.0
2,7, 1, 7, 0,12, 0.00,60.00,Wednesday
4973,-1.9686011571296976
4826,0.0
4827,0.0
2,7, 1, 7, 0,13, 0.00,60.00,Wednesday
4973,-1.9223224069231225
4826,0.0
4827,0.0
2,7, 1, 7, 0,14, 0.00,60.00,Wednesday
4973,-1.8472038782326737
4826,0.0
4827,0.0
2,7, 1, 7, 0,15, 0.00,60.00,Wednesday
4973,-1.7485758288064264
4826,0.0
4827,0.0
2,7, 1, 7, 0,16, 0.00,60.00,Wednesday
4973,-1.6259102301991609
4826,0.0
4827,0.0
2,7, 1, 7, 0,17, 0.00,60.00,Wednesday
4973,-1.5457580114838073
4826,0.0
4827,0.0
2,7, 1, 7, 0,18, 0.00,60.00,Wednesday
4973,-1.5607470513444804
4826,0.0
4827,0.0
2,7, 1, 7, 0,19, 0.00,60.00,Wednesday
4973,-1.5909330893515546
4826,0.0
4827,0.0
2,7, 1, 7, 0,20, 0.00,60.00,Wednesday
4973,-1.6105444694182154
4826,0.0
4827,0.0
2,7, 1, 7, 0,21, 0.00,60.00,Wednesday
4973,-1.6336946729462057
4826,0.0
4827,0.0
2,7, 1, 7, 0,22, 0.00,60.00,Wednesday
4973,-1.1770894902185732
4826,2353448.241403935
4827,2.9402826839941555e-8
2,7, 1, 7, 0,23, 0.00,60.00,Wednesday
4973,-1.0198682521399976
4826,1716272.3947575344
4827,6.891127668495756e-8
2,7, 1, 7, 0,24, 0.00,60.00,Wednesday
4973,-1.0088546802339327
4826,1623186.2827410838
4827,7.187850314949174e-8
2,8, 1, 8, 0, 1, 0.00,60.00,Thursday
4973,-1.002843124413991
4826,1820983.9068790207
4827,6.196054463154204e-8
2,8, 1, 8, 0, 2, 0.00,60.00,Thursday
4973,-0.9975594425282546
4826,1826554.5448378036
4827,4.532694219960831e-8
2,8, 1, 8, 0, 3, 0.00,60.00,Thursday
4973,-0.9929323429641296
4826,1846300.580304869
4827,5.985612006043084e-9
2,8, 1, 8, 0, 4, 0.00,60.00,Thursday
4973,-0.9890377781302
4826,1863665.2978102975
4827,1.1909833119716495e-7
2,8, 1, 8, 0, 5, 0.00,60.00,Thursday
4973,-0.9855919167925218
4826,1870150.4890034369
4827,4.368985173641704e-8
2,8, 1, 8, 0, 6, 0.00,60.00,Thursday
4973,-0.9820331559525672
4826,1875349.0467724053
4827,3.611830834415741e-8
2,8, 1, 8, 0, 7, 0.00,60.00,Thursday
4973,-0.9794410513678382
4826,1871585.9732746932
4827,2.6193447411060334e-8
2,8, 1, 8, 0, 8, 0.00,60.00,Thursday
4973,-1.4955178469912629
4826,0.0
4827,0.0
2,8, 1, 8, 0, 9, 0.00,60.00,Thursday
4973,-1.7957127594736924
4826,0.0
4827,0.0
2,8, 1, 8, 0,10, 0.00,60.00,Thursday
4973,-1.8029448681167375
4826,0.0
4827,0.0
2,8, 1, 8, 0,11, 0.00,60.00,Thursday
4973,-1.794745308953646
4826,0.0
4827,0.0
2,8, 1, 8, 0,12, 0.00,60.00,Thursday
4973,-1.7749707788951686
4826,0.0
4827,0.0
2,8, 1, 8, 0,13, 0.00,60.00,Thursday
4973,-1.7525879743700366
4826,0.0
4827,0.0
2,8, 1, 8, 0,14, 0.00,60.00,Thursday
4973,-1.7287849385220138
4826,0.0
4827,0.0
2,8, 1, 8, 0,15, 0.00,60.00,Thursday
4973,-1.7057770923131775
4826,0.0
4827,0.0
2,8, 1, 8, 0,16, 0.00,60.00,Thursday
4973,-1.6861454209798186
4826,0.0
4827,0.0
2,8, 1, 8, 0,17, 0.00,60.00,Thursday
4973,-1.6696132241984366
4826,0.0
4827,0.0
2,8, 1, 8, 0,18, 0.00,60.00,Thursday
4973,-1.6692924449917146
4826,0.0
4827,0.0
2,8, 1, 8, 0,19, 0.00,60.00,Thursday
4973,-1.6850670397091956
4826,0.0
4827,0.0
2,8, 1, 8, 0,20, 0.00,60.00,Thursday
4973,-1.6979838047304612
4826,0.0
4827,0.0
2,8, 1, 8, 0,21, 0.00,60.00,Thursday
4973,-1.7102786489991183
4826,0.0
4827,0.0
2,8, 1, 8, 0,22, 0.00,60.00,Thursday
4973,-1.198174370605377
4826,2532329.569243589
4827,2.0598349692591e-8
2,8, 1, 8, 0,23, 0.00,60.00,Thursday
4973,-1.0196538535813176
4826,1763684.2764579268
4827,1.0538769856793806e-8
2,8, 1, 8, 0,24, 0.00,60.00,Thursday
4973,-1.0038174728701344
4826,1667958.608002851
4827,4.184812496532686e-8
2,9, 1, 9, 0, 1, 0.00,60.00,Friday
4973,-0.9962590183368438
4826,1878075.4220357747
4827,7.00952438949441e-8
2,9, 1, 9, 0, 2, 0.00,60.00,Friday
4973,-0.9925076009452613
4826,1900741.2047026333
4827,3.192326403222978e-8
2,9, 1, 9, 0, 3, 0.00,60.00,Friday
4973,-0.9896208065150443
4826,1903070.5443788672
4827,6.35395736026112e-8
2,9, 1, 9, 0, 4, 0.00,60.00,Friday
4973,-0.9860517401417277
4826,1889171.2263969177
4827,4.5633896661456677e-8
2,9, 1, 9, 0, 5, 0.00,60.00,Friday
4973,-0.9817145595831757
4826,1874335.9333822437
4827,3.980176188633777e-8
2,9, 1, 9, 0, 6, 0.00,60.00,Friday
4973,-0.9772998586117663
4826,1861867.2269908027
4827,2.8546764951897786e-8
2,9, 1, 9, 0, 7, 0.00,60.00,Friday
4973,-0.973911215378535
4826,1850598.1173006478
4827,4.4917669583810496e-8
2,9, 1, 9, 0, 8, 0.00,60.00,Friday
4973,-1.481060288514754
4826,0.0
4827,0.0
2,9, 1, 9, 0, 9, 0.00,60.00,Friday
4973,-1.7855571887607838
4826,0.0
4827,0.0
2,9, 1, 9, 0,10, 0.00,60.00,Friday
4973,-1.8097629759664465
4826,0.0
4827,0.0
2,9, 1, 9, 0,11, 0.00,60.00,Friday
4973,-1.8134612828279222
4826,0.0
4827,0.0
2,9, 1, 9, 0,12, 0.00,60.00,Friday
4973,-1.811927734690191
4826,0.0
4827,0.0
2,9, 1, 9, 0,13, 0.00,60.00,Friday
4973,-1.8097671396371147
4826,0.0
4827,0.0
2,9, 1, 9, 0,14, 0.00,60.00,Friday
4973,-1.8024995586103725
4826,0.0
4827,0.0
2,9, 1, 9, 0,15, 0.00,60.00,Friday
4973,-1.7990677286175037
4826,0.0
4827,0.0
2,9, 1, 9, 0,16, 0.00,60.00,Friday
4973,-1.7953561980195736
4826,0.0
4827,0.0
2,9, 1, 9, 0,17, 0.00,60.00,Friday
4973,-1.7980662609116305
4826,0.0
4827,0.0
2,9, 1, 9, 0,18, 0.00,60.00,Friday
4973,-1.806752181200446
4826,0.0
4827,0.0
2,9, 1, 9, 0,19, 0.00,60.00,Friday
4973,-1.812879706502627
4826,0.0
4827,0.0
2,9, 1, 9, 0,20, 0.00,60.00,Friday
4973,-1.8030763321562482
4826,0.0
4827,0.0
2,9, 1, 9, 0,21, 0.00,60.00,Friday
4973,-1.8010881710039458
4826,0.0
4827,0.0
2,9, 1, 9, 0,22, 0.00,60.00,Friday
4973,-1.2372807236023365
4826,2802461.450316125
4827,4.013088528154185e-8
2,9, 1, 9, 0,23, 0.00,60.00,Friday
4973,-1.0453926529947489
4826,1927655.87800847
4827,4.553157850750722e-8
2,9, 1, 9, 0,24, 0.00,60.00,Friday
4973,-1.0311370031616974
4826,1785485.9773427703
4827,4.189928404230159e-8
2,10, 1,10, 0, 1, 0.00,60.00,Saturday
4973,-1.0226471518083849
4826,1939420.3776241719
4827,2.102883400427962
2,10, 1,10, 0, 2, 0.00,60.00,Saturday
4973,-1.016022845276146
4826,1912717.212412796
4827,6.139089236967266e-8
2,10, 1,10, 0, 3, 0.00,60.00,Saturday
4973,-1.010095297076643
4826,1875173.8748799232
4827,2.3737811716273428e-8
2,10, 1,10, 0, 4, 0.00,60.00,Saturday
4973,-1.0042714158322326
4826,1846587.8068044598
4827,6.307914190983866e-8
2,10, 1,10, 0, 5, 0.00,60.00,Saturday
4973,-0.9983956388610754
4826,1828827.9704897463
4827,8.021743269637227e-8
2,10, 1,10, 0, 6, 0.00,60.00,Saturday
4973,-0.992937043685338
4826,1818246.9416663559
4827,1.1592646842473187e-7
2,10, 1,10, 0, 7, 0.00,60.00,Saturday
4973,-0.9884119674949488
4826,1807235.2338943775
4827,9.991367733164225e-8
2,10, 1,10, 0, 8, 0.00,60.00,Saturday
4973,-0.9848149121550229
4826,1790030.1808545457
4827,5.5845248425612229e-8
2,10, 1,10, 0, 9, 0.00,60.00,Saturday
4973,-0.9821983300961317
4826,1839886.7808751022
4827,1.1863789950439241e-7
2,10, 1,10, 0,10, 0.00,60.00,Saturday
4973,-0.9804792055938437
4826,1817145.2094580765
4827,3.8829739423817958e-8
2,10, 1,10, 0,11, 0.00,60.00,Saturday
4973,-0.979410868041196
4826,1831188.5167107278
4827,8.0831341620069e-9
2,10, 1,10, 0,12, 0.00,60.00,Saturday
4973,-0.9793363699969049
4826,1776405.6407033352
4827,3.2741809263825418e-9
2,10, 1,10, 0,13, 0.00,60.00,Saturday
4973,-0.977784703445761
4826,1705967.2757176287
4827,4.860112312599085e-8
2,10, 1,10, 0,14, 0.00,60.00,Saturday
4973,-0.9747798171416494
4826,1625556.347697379
4827,4.757794158649631e-8
2,10, 1,10, 0,15, 0.00,60.00,Saturday
4973,-0.9661257245957599
4826,1469477.1135216745
4827,3.709033080667723e-8
2,10, 1,10, 0,16, 0.00,60.00,Saturday
4973,-0.9501706977021709
4826,1375326.9135513288
4827,3.565787665138487e-8
2,10, 1,10, 0,17, 0.00,60.00,Saturday
4973,-0.9339879864817903
4826,1402121.1294026965
4827,6.446043698815629e-9
2,10, 1,10, 0,18, 0.00,60.00,Saturday
4973,-0.9252117764170553
4826,1421895.4691510439
4827,4.9828940973384309e-8
2,10, 1,10, 0,19, 0.00,60.00,Saturday
4973,-0.921786011421321
4826,1453264.1318213428
4827,7.059952622512356e-8
2,10, 1,10, 0,20, 0.00,60.00,Saturday
4973,-0.9200099914937423
4826,1364366.2681967198
4827,2.1665869098796976e-8
2,10, 1,10, 0,21, 0.00,60.00,Saturday
4973,-0.9185615817728037
4826,1340148.9557679988
4827,5.325659913069103e-8
2,10, 1,10, 0,22, 0.00,60.00,Saturday
4973,-0.9135779989028541
4826,1326239.6580731015
4827,3.161630957038142e-8
2,10, 1,10, 0,23, 0.00,60.00,Saturday
4973,-0.9064978489433316
4826,1324366.5798974739
4827,7.61247065383941e-8
2,10, 1,10, 0,24, 0.00,60.00,Saturday
4973,-0.8998938428220042
4826,1300853.2027543276
4827,4.757794158649631e-8
2,11, 1,11, 0, 1, 0.00,60.00,Sunday
4973,-0.9001591194320937
4826,1498875.835430527
4827,3.6000155237811019e-8
2,11, 1,11, 0, 2, 0.00,60.00,Sunday
4973,-0.9047473787101286
4826,1561716.2394437926
4827,7.433413884427864e-8
2,11, 1,11, 0, 3, 0.00,60.00,Sunday
4973,-0.9108613506955178
4826,1594226.9579442912
4827,1.9696244635269978e-8
2,11, 1,11, 0, 4, 0.00,60.00,Sunday
4973,-0.9141340067151003
4826,1605235.35285008
4827,4.609432835422922e-8
2,11, 1,11, 0, 5, 0.00,60.00,Sunday
4973,-0.9151152893908195
4826,1618421.3386132383
4827,4.998241820430849e-8
2,11, 1,11, 0, 6, 0.00,60.00,Sunday
4973,-0.9168346728059482
4826,1636046.3752434829
4827,3.87274212698685e-8
2,11, 1,11, 0, 7, 0.00,60.00,Sunday
4973,-0.9193854458633058
4826,1650578.629675218
4827,0.0
2,11, 1,11, 0, 8, 0.00,60.00,Sunday
4973,-0.9205998527195893
4826,1633397.946528332
4827,3.789523361774627e-8
2,11, 1,11, 0, 9, 0.00,60.00,Sunday
4973,-0.9194272914131315
4826,1613784.487805745
4827,5.4433257901109758e-8
2,11, 1,11, 0,10, 0.00,60.00,Sunday
4973,-0.9145179241986668
4826,1537858.7527614944
4827,2.5016788640641608e-8
2,11, 1,11, 0,11, 0.00,60.00,Sunday
4973,-0.9079547672212452
4826,1538940.3786974266
4827,2.737010618147906e-8
2,11, 1,11, 0,12, 0.00,60.00,Sunday
4973,-0.9025347523054016
4826,1499956.7023254783
4827,4.2871306504821408e-8
2,11, 1,11, 0,13, 0.00,60.00,Sunday
4973,-0.898597685895735
4826,1467987.6180982828
4827,2.880256033677142e-8
2,11, 1,11, 0,14, 0.00,60.00,Sunday
4973,-0.8952037948427878
4826,1446580.5151365768
4827,6.333493729471229e-8
2,11, 1,11, 0,15, 0.00,60.00,Sunday
4973,-0.891928187267419
4826,1356523.9467897847
4827,8.338929546880536e-9
2,11, 1,11, 0,16, 0.00,60.00,Sunday
4973,-0.8880835494928245
4826,1325667.3774270334
4827,0.0
2,11, 1,11, 0,17, 0.00,60.00,Sunday
4973,-0.886125301424455
4826,1364553.4676691532
4827,2.4505197870894336e-8
2,11, 1,11, 0,18, 0.00,60.00,Sunday
4973,-0.8853992460614228
4826,1353043.627564961
4827,1.4989609553595075e-8
2,11, 1,11, 0,19, 0.00,60.00,Sunday
4973,-0.8828373802741102
4826,1329273.3079442438
4827,5.934452929068357e-8
2,11, 1,11, 0,20, 0.00,60.00,Sunday
4973,-0.8801335681482668
4826,1188347.272624278
4827,2.716546987358015e-8
2,11, 1,11, 0,21, 0.00,60.00,Sunday
4973,-0.8773948702201273
4826,1131464.994559656
4827,2.7216628950554879e-8
2,11, 1,11, 0,22, 0.00,60.00,Sunday
4973,-0.8745818450145175
4826,1113900.1596930209
4827,2.25611529458547e-8
2,11, 1,11, 0,23, 0.00,60.00,Sunday
4973,-0.8735664840315628
4826,1101569.9682488689
4827,2.864908310584724e-8
2,11, 1,11, 0,24, 0.00,60.00,Sunday
4973,-0.872826455678791
4826,1040093.6101830363
4827,1.539888216939289e-8
2,12, 1,12, 0, 1, 0.00,60.00,Monday
4973,-0.8738149197470292
4826,1182345.5393299503
4827,3.766045936642443e-8
2,12, 1,12, 0, 2, 0.00,60.00,Monday
4973,-0.8749689456382261
4826,1193373.409416506
4827,5.801439328934066e-8
2,12, 1,12, 0, 3, 0.00,60.00,Monday
4973,-0.8766803856443091
4826,1223845.5623980535
4827,2.0821744328713977e-8
2,12, 1,12, 0, 4, 0.00,60.00,Monday
4973,-0.8779435776464429
4826,1251741.529633697
4827,1.2431655704858713e-8
2,12, 1,12, 0, 5, 0.00,60.00,Monday
4973,-0.8776920531444383
4826,1277268.3554755452
4827,4.113189788768068e-8
2,12, 1,12, 0, 6, 0.00,60.00,Monday
4973,-0.8759182552297402
4826,1300974.32277722
4827,3.831814865407068e-8
2,12, 1,12, 0, 7, 0.00,60.00,Monday
4973,-0.8730608316938784
4826,1316916.4755340242
4827,2.297042556165252e-8
2,12, 1,12, 0, 8, 0.00,60.00,Monday
4973,-1.3180304332668454
4826,0.0
4827,0.0
2,12, 1,12, 0, 9, 0.00,60.00,Monday
4973,-1.5589205925490786
4826,0.0
4827,0.0
2,12, 1,12, 0,10, 0.00,60.00,Monday
4973,-1.5627000559403009
4826,0.0
4827,0.0
2,12, 1,12, 0,11, 0.00,60.00,Monday
4973,-1.5650870703186013
4826,0.0
4827,0.0
2,12, 1,12, 0,12, 0.00,60.00,Monday
4973,-1.571987631287806
4826,0.0
4827,0.0
2,12, 1,12, 0,13, 0.00,60.00,Monday
4973,-1.5758440256071829
4826,0.0
4827,0.0
2,12, 1,12, 0,14, 0.00,60.00,Monday
4973,-1.5826015296087884
4826,0.0
4827,0.0
2,12, 1,12, 0,15, 0.00,60.00,Monday
4973,-1.5821533153960488
4826,0.0
4827,0.0
2,12, 1,12, 0,16, 0.00,60.00,Monday
4973,-1.5745846750158857
4826,0.0
4827,0.0
2,12, 1,12, 0,17, 0.00,60.00,Monday
4973,-1.5644382157406985
4826,0.0
4827,0.0
2,12, 1,12, 0,18, 0.00,60.00,Monday
4973,-1.5554412884866898
4826,0.0
4827,0.0
2,12, 1,12, 0,19, 0.00,60.00,Monday
4973,-1.5541254831433094
4826,0.0
4827,0.0
2,12, 1,12, 0,20, 0.00,60.00,Monday
4973,-1.5483231710783599
4826,0.0
4827,0.0
2,12, 1,12, 0,21, 0.00,60.00,Monday
4973,-1.551597308961897
4826,0.0
4827,0.0
2,12, 1,12, 0,22, 0.00,60.00,Monday
4973,-1.0967491146029376
4826,2082964.9995559455
4827,6.587924872292206e-8
2,12, 1,12, 0,23, 0.00,60.00,Monday
4973,-0.9427650802108303
4826,1390787.3381885612
4827,9.157474778476171e-8
2,12, 1,12, 0,24, 0.00,60.00,Monday
4973,-0.9316214268964228
4826,1278103.2347088834
4827,4.0108716348186138e-8
2,13, 1,13, 0, 1, 0.00,60.00,Tuesday
4973,-0.9247596897894195
4826,1453931.6486968683
4827,4.491348565819373
2,13, 1,13, 0, 2, 0.00,60.00,Tuesday
4973,-0.9189919322077761
4826,1443907.7504769318
4827,3.473701326583978e-8
2,13, 1,13, 0, 3, 0.00,60.00,Tuesday
4973,-0.9138404154347763
4826,1435922.237194421
4827,3.2946445571724328e-8
2,13, 1,13, 0, 4, 0.00,60.00,Tuesday
4973,-0.9092805913777975
4826,1428796.4911918177
4827,2.7063151719630697e-8
2,13, 1,13, 0, 5, 0.00,60.00,Tuesday
4973,-0.904988689348565
4826,1426888.1079389484
4827,5.980496098345611e-8
2,13, 1,13, 0, 6, 0.00,60.00,Tuesday
4973,-0.9008388656396861
4826,1429234.5894288333
4827,7.760831977066118e-8
2,13, 1,13, 0, 7, 0.00,60.00,Tuesday
4973,-0.8978232285276655
4826,1429026.6560886647
4827,4.276898835087195e-8
2,13, 1,13, 0, 8, 0.00,60.00,Tuesday