Program Version,EnergyPlus, Version 8.7.0-78a111df4a, YMD=2019.06.21 03:05
1,5,Environment Title[],Latitude[deg],Longitude[deg],Time Zone[],Elevation[m]
2,6,Day of Simulation[],Month[],Day of Month[],DST Indicator[1=yes 0=no],Hour[],StartMinute[],EndMinute[],DayType
3,3,Cumulative Day of Simulation[],Month[],Day of Month[],DST Indicator[1=yes 0=no],DayType  ! When Daily Report Variables Requested
4,2,Cumulative Days of Simulation[],Month[]  ! When Monthly Report Variables Requested
5,1,Cumulative Days of Simulation[] ! When Run Period Report Variables Requested
1929,1,THERMAL ZONE: SPACE 201,Zone Air Temperature [C] !Hourly
2695,1,THERMAL ZONE: SPACE 201 PEOPLE,Zone Thermal Comfort Fanger Model PMV [] !Hourly
3063,1,THERMAL ZONE: SPACE 305 PTHP,Zone Packaged Terminal Heat Pump Total Heating Energy [J] !Hourly
3064,1,THERMAL ZONE: SPACE 305 PTHP,Zone Packaged Terminal Heat Pump Total Cooling Energy [J] !Hourly
End of Data Dictionary
1,ANN HTG 99.6% CONDNS DB,  29.58, 106.47,   8.00, 259.10
2,1, 1,21, 0, 1, 0.00,60.00,WinterDesignDay
2695,-6.49410001496573
1929,18.00006594783717
3063,4652458.377569808
3064,0.0
2,1, 1,21, 0, 2, 0.00,60.00,WinterDesignDay
2695,-6.498014393176004
1929,18.000049852498817
3063,4671526.108831847
3064,0.0
2,1, 1,21, 0, 3, 0.00,60.00,WinterDesignDay
2695,-6.501280400434858
1929,18.00003580590361
3063,4691337.864207898
3064,0.0
2,1, 1,21, 0, 4, 0.00,60.00,WinterDesignDay
2695,-6.504145590559502
1929,18.000030357434846
3063,4709105.098315419
3064,0.0
2,1, 1,21, 0, 5, 0.00,60.00,WinterDesignDay
2695,-6.50686886535016
1929,18.000023935425607
3063,4729335.088018153
3064,0.0
2,1, 1,21, 0, 6, 0.00,60.00,WinterDesignDay
2695,-6.5091282200216489
1929,17.99999592227551
3063,4759702.0983076789
3064,0.0
2,1, 1,21, 0, 7, 0.00,60.00,WinterDesignDay
2695,-5.677711833055551
1929,17.999927458057138
3063,4798823.009996713
3064,0.0
2,1, 1,21, 0, 8, 0.00,60.00,WinterDesignDay
2695,-5.674824874409475
1929,17.9998333326797
3063,5185312.305198352
3064,0.0
2,1, 1,21, 0, 9, 0.00,60.00,WinterDesignDay
2695,-5.319621366861381
1929,18.000099123696697
3063,6310378.611490157
3064,0.0
2,1, 1,21, 0,10, 0.00,60.00,WinterDesignDay
2695,-5.300807038936926
1929,18.000706523770597
3063,7304556.89771774
3064,0.0
2,1, 1,21, 0,11, 0.00,60.00,WinterDesignDay
2695,-5.288923721033162
1929,18.000900706560548
3063,7021262.928904556
3064,0.0
2,1, 1,21, 0,12, 0.00,60.00,WinterDesignDay
2695,-5.281176978662773
1929,18.000927817552414
3063,6834820.323179681
3064,0.0
2,1, 1,21, 0,13, 0.00,60.00,WinterDesignDay
2695,-5.276946799175464
1929,18.00084190256911
3063,6365992.959652299
3064,0.0
2,1, 1,21, 0,14, 0.00,60.00,WinterDesignDay
2695,-5.273332819757481
1929,18.000818036301998
3063,6292799.91198662
3064,0.0
2,1, 1,21, 0,15, 0.00,60.00,WinterDesignDay
2695,-5.268691680350098
1929,18.00096348263607
3063,6555749.911852809
3064,0.0
2,1, 1,21, 0,16, 0.00,60.00,WinterDesignDay
2695,-5.266854227710372
1929,18.001090773203634
3063,6543103.640047516
3064,0.0
2,1, 1,21, 0,17, 0.00,60.00,WinterDesignDay
2695,-5.268121558653664
1929,18.001149245564993
3063,6600349.935190933
3064,0.0
2,1, 1,21, 0,18, 0.00,60.00,WinterDesignDay
2695,-5.270475435372866
1929,18.0011957586791
3063,6687286.079889156
3064,0.0
2,1, 1,21, 0,19, 0.00,60.00,WinterDesignDay
2695,-5.615722043283142
1929,18.000683830201369
3063,5222321.934490846
3064,0.0
2,1, 1,21, 0,20, 0.00,60.00,WinterDesignDay
2695,-5.631283677846852
1929,18.00035963471362
3063,5398744.207461249
3064,0.0
2,1, 1,21, 0,21, 0.00,60.00,WinterDesignDay
2695,-5.641590323982885
1929,18.0001891332232
3063,4569422.168117141
3064,0.0
2,1, 1,21, 0,22, 0.00,60.00,WinterDesignDay
2695,-5.649600894193564
1929,18.00011541214072
3063,4613233.292197469
3064,0.0
2,1, 1,21, 0,23, 0.00,60.00,WinterDesignDay
2695,-5.655244596396725
1929,18.0000877767929
3063,4633960.829144182
3064,0.0
2,1, 1,21, 0,24, 0.00,60.00,WinterDesignDay
2695,-5.65983253310522
1929,18.00007534018445
3063,4647584.9586485
3064,0.0
1,ANN CLG 4% CONDNS DB =>MWB,  29.58, 106.47,   8.00, 259.10
2,1, 7,21, 0, 1, 0.00,60.00,SummerDesignDay
2695,-3.1533196252098518
1929,25.99975930949446
3063,0.0
3064,880760.8778927625
2,1, 7,21, 0, 2, 0.00,60.00,SummerDesignDay
2695,-3.1635825248144635
1929,25.999830706415478
3063,0.0
3064,848310.6519633785
2,1, 7,21, 0, 3, 0.00,60.00,SummerDesignDay
2695,-3.1715365595146438
1929,25.999879701624214
3063,0.0
3064,821178.6122884918
2,1, 7,21, 0, 4, 0.00,60.00,SummerDesignDay
2695,-3.1780118695261216
1929,25.9999103831113
3063,0.0
3064,797806.081042981
2,1, 7,21, 0, 5, 0.00,60.00,SummerDesignDay
2695,-3.1836069278387346
1929,25.999931951232289
3063,0.0
3064,775595.2080490451
2,1, 7,21, 0, 6, 0.00,60.00,SummerDesignDay
2695,-3.1884637404200348
1929,25.99996108228989
3063,0.0
3064,750247.1508115765
2,1, 7,21, 0, 7, 0.00,60.00,SummerDesignDay
2695,-3.8918457237638028
1929,25.999996553374009
3063,0.0
3064,720143.7803420907
2,1, 7,21, 0, 8, 0.00,60.00,SummerDesignDay
2695,-3.8688918044308839
1929,25.999682151099039
3063,0.0
3064,1125085.6902021112
2,1, 7,21, 0, 9, 0.00,60.00,SummerDesignDay
2695,-3.8106511420873856
1929,25.99690931168523
3063,0.0
3064,3787199.173895251
2,1, 7,21, 0,10, 0.00,60.00,SummerDesignDay
2695,-3.660124749248801
1929,26.581732941314745
3063,0.0
3064,6870184.877471445
2,1, 7,21, 0,11, 0.00,60.00,SummerDesignDay
2695,-3.547015522289909
1929,26.985685634349524
3063,0.0
3064,6973276.398555795
2,1, 7,21, 0,12, 0.00,60.00,SummerDesignDay
2695,-3.4771610490454316
1929,27.28724498730922
3063,0.0
3064,6913879.824302784
2,1, 7,21, 0,13, 0.00,60.00,SummerDesignDay
2695,-3.5138187434964029
1929,26.96470071677083
3063,0.0
3064,6569048.145372437
2,1, 7,21, 0,14, 0.00,60.00,SummerDesignDay
2695,-3.5203599789450226
1929,27.020323394019518
3063,0.0
3064,6329961.037142541
2,1, 7,21, 0,15, 0.00,60.00,SummerDesignDay
2695,-3.4102950562855605
1929,27.62970064463819
3063,0.0
3064,6660658.140579089
2,1, 7,21, 0,16, 0.00,60.00,SummerDesignDay
2695,-3.3648031957058039
1929,27.676150320719086
3063,0.0
3064,6920660.780760514
2,1, 7,21, 0,17, 0.00,60.00,SummerDesignDay
2695,-3.3804117687814769
1929,27.553309865916295
3063,0.0
3064,7013862.946630286
2,1, 7,21, 0,18, 0.00,60.00,SummerDesignDay
2695,-3.4073482261861316
1929,27.378908962417296
3063,0.0
3064,7108918.2484547919
2,1, 7,21, 0,19, 0.00,60.00,SummerDesignDay
2695,-3.581485881409568
1929,26.047583284538694
3063,0.0
3064,4159812.476673304
2,1, 7,21, 0,20, 0.00,60.00,SummerDesignDay
2695,-3.691715016084506
1929,25.997022646754137
3063,0.0
3064,3390451.4958039077
2,1, 7,21, 0,21, 0.00,60.00,SummerDesignDay
2695,-3.7257617783895289
1929,25.99858763531381
3063,0.0
3064,1361030.7856871014
2,1, 7,21, 0,22, 0.00,60.00,SummerDesignDay
2695,-3.777783723126755
1929,25.99917367394301
3063,0.0
3064,1133531.3018976609
2,1, 7,21, 0,23, 0.00,60.00,SummerDesignDay
2695,-3.8091187404846424
1929,25.99947577833825
3063,0.0
3064,1018942.525597349
2,1, 7,21, 0,24, 0.00,60.00,SummerDesignDay
2695,-3.8296786504981545
1929,25.999659722713095
3063,0.0
3064,948931.9571919394
1,RUN PERIOD 1,  29.58, 106.47,   8.00, 259.10
2,1, 1, 1, 0, 1, 0.00,60.00,Holiday
2695,-6.116991740034785
1929,18.00020425552493
3063,1690898.688602741
3064,0.0
2,1, 1, 1, 0, 2, 0.00,60.00,Holiday
2695,-6.120169533656408
1929,18.000079882036073
3063,1718529.8670987189
3064,0.0
2,1, 1, 1, 0, 3, 0.00,60.00,Holiday
2695,-6.121768661882644
1929,18.000055925729453
3063,1723187.5547262824
3064,0.0
2,1, 1, 1, 0, 4, 0.00,60.00,Holiday
2695,-6.123572482443827
1929,18.000074519061149
3063,1722635.8095473506
3064,0.0
2,1, 1, 1, 0, 5, 0.00,60.00,Holiday
2695,-6.126741791358683
1929,18.000128125630604
3063,1717867.508919937
3064,0.0
2,1, 1, 1, 0, 6, 0.00,60.00,Holiday
2695,-6.133591560140565
1929,18.000164428645289
3063,1658332.7190066593
3064,0.0
2,1, 1, 1, 0, 7, 0.00,60.00,Holiday
2695,-6.539925619717322
1929,18.000123916487078
3063,1705098.091805512
3064,0.0
2,1, 1, 1, 0, 8, 0.00,60.00,Holiday
2695,-6.549084197291569
1929,18.00007987965508
3063,1766026.3677285275
3064,0.0
2,1, 1, 1, 0, 9, 0.00,60.00,Holiday
2695,-6.055138289434974
1929,18.000040234118456
3063,1825823.2800497593
3064,0.0
2,1, 1, 1, 0,10, 0.00,60.00,Holiday
2695,-6.05795058131132
1929,18.000008989083196
3063,1889865.4046654297
3064,0.0
2,1, 1, 1, 0,11, 0.00,60.00,Holiday
2695,-6.0588638330124
1929,18.000005589700483
3063,1932879.5381912688
3064,0.0
2,1, 1, 1, 0,12, 0.00,60.00,Holiday
2695,-6.059516443947619
1929,18.00000228042712
3063,1954801.2932350157
3064,0.0
2,1, 1, 1, 0,13, 0.00,60.00,Holiday
2695,-6.060279446247724
1929,18.0000006689064
3063,1997325.8002427002
3064,0.0
2,1, 1, 1, 0,14, 0.00,60.00,Holiday
2695,-6.05905974688692
1929,18.000000554495754
3063,2037324.6765126785
3064,0.0
2,1, 1, 1, 0,15, 0.00,60.00,Holiday
2695,-6.055524741990902
1929,18.000000447077939
3063,2061823.5133043158
3064,0.0
2,1, 1, 1, 0,16, 0.00,60.00,Holiday
2695,-6.049528972264505
1929,18.000000348598524
3063,2073229.581763451
3064,0.0
2,1, 1, 1, 0,17, 0.00,60.00,Holiday
2695,-6.040985655283319
1929,18.000000272513338
3063,2069014.1443388437
3064,0.0
2,1, 1, 1, 0,18, 0.00,60.00,Holiday
2695,-6.030293828565775
1929,18.000000225161754
3063,2043177.6775275889
3064,0.0
2,1, 1, 1, 0,19, 0.00,60.00,Holiday
2695,-6.51228570447937
1929,18.00000019982489
3063,1993317.2305106852
3064,0.0
2,1, 1, 1, 0,20, 0.00,60.00,Holiday
2695,-6.49968252011735
1929,18.000000203543548
3063,1903190.0940973452
3064,0.0
2,1, 1, 1, 0,21, 0.00,60.00,Holiday
2695,-6.49249863206595
1929,18.000051883420864
3063,1789632.3004680458
3064,0.0
2,1, 1, 1, 0,22, 0.00,60.00,Holiday
2695,-6.4926014432905438
1929,18.000282312987513
3063,1703813.7581004005
3064,0.0
2,1, 1, 1, 0,23, 0.00,60.00,Holiday
2695,-6.497875980180986
1929,18.000376433521298
3063,1664789.7284895969
3064,0.0
2,1, 1, 1, 0,24, 0.00,60.00,Holiday
2695,-6.505209431532825
1929,18.000369278369928
3063,1654942.394349174
3064,0.0
2,2, 1, 2, 0, 1, 0.00,60.00,Holiday
2695,-6.512150765980493
1929,18.000337278883945
3063,1654918.9736134893
3064,0.0
2,2, 1, 2, 0, 2, 0.00,60.00,Holiday
2695,-6.519173134746148
1929,18.000276544552386
3063,1668731.85501558
3064,0.0
2,2, 1, 2, 0, 3, 0.00,60.00,Holiday
2695,-6.525589736598119
1929,18.00020099777131
3063,1691721.169658061
3064,0.0
2,2, 1, 2, 0, 4, 0.00,60.00,Holiday
2695,-6.530622965504875
1929,18.000142202126999
3063,1714333.310054004
3064,0.0
2,2, 1, 2, 0, 5, 0.00,60.00,Holiday
2695,-6.534723291701181
1929,18.00010283151639
3063,1736873.3710600259
3064,0.0
2,2, 1, 2, 0, 6, 0.00,60.00,Holiday
2695,-6.538297530875314
1929,18.000076622837154
3063,1761241.5934584947
3064,0.0
2,2, 1, 2, 0, 7, 0.00,60.00,Holiday
2695,-6.641993933135271
1929,18.000065848407848
3063,1785465.5045059224
3064,0.0
2,2, 1, 2, 0, 8, 0.00,60.00,Holiday
2695,-6.645321628481806
1929,18.00005083845757
3063,1815089.7265090782
3064,0.0
2,2, 1, 2, 0, 9, 0.00,60.00,Holiday
2695,-6.131014057055122
1929,18.000004839788443
3063,1865351.6069669394
3064,0.0
2,2, 1, 2, 0,10, 0.00,60.00,Holiday
2695,-6.1312104299694749
1929,18.000000529882717
3063,1919823.0169679044
3064,0.0
2,2, 1, 2, 0,11, 0.00,60.00,Holiday
2695,-6.129834370804644
1929,18.000000471901509
3063,1944401.797080873
3064,0.0
2,2, 1, 2, 0,12, 0.00,60.00,Holiday
2695,-6.1288373833239559
1929,18.000000430194473
3063,1963724.9315852305
3064,0.0
2,2, 1, 2, 0,13, 0.00,60.00,Holiday
2695,-6.127936223540178
1929,18.000000397185365
3063,1981176.29994311
3064,0.0
2,2, 1, 2, 0,14, 0.00,60.00,Holiday
2695,-6.126838411625427
1929,18.000000360475103
3063,1994665.0905300575
3064,0.0
2,2, 1, 2, 0,15, 0.00,60.00,Holiday
2695,-6.124605499390259
1929,18.000000313294764
3063,2010011.7872942016
3064,0.0
2,2, 1, 2, 0,16, 0.00,60.00,Holiday
2695,-6.120061368623563
1929,18.000000269891268
3063,2012851.8812128786
3064,0.0
2,2, 1, 2, 0,17, 0.00,60.00,Holiday
2695,-6.113701338216969
1929,18.000000256765856
3063,1965751.7967380454
3064,0.0
2,2, 1, 2, 0,18, 0.00,60.00,Holiday
2695,-6.108459641252058
1929,18.000000272504896
3063,1889663.9724874446
3064,0.0
2,2, 1, 2, 0,19, 0.00,60.00,Holiday
2695,-6.61755952990979
1929,18.000022427588069
3063,1821093.9363759477
3064,0.0
2,2, 1, 2, 0,20, 0.00,60.00,Holiday
2695,-6.615736893380554
1929,18.000091881685987
3063,1764343.3229395659
3064,0.0
2,2, 1, 2, 0,21, 0.00,60.00,Holiday
2695,-6.6153789458865239
1929,18.000089704808777
3063,1733726.6594251618
3064,0.0
2,2, 1, 2, 0,22, 0.00,60.00,Holiday
2695,-6.614851823341351
1929,18.00002049806395
3063,1730111.3218044679
3064,0.0
2,2, 1, 2, 0,23, 0.00,60.00,Holiday
2695,-6.613259004964783
1929,18.000000374682519
3063,1723590.4347629399
3064,0.0
2,2, 1, 2, 0,24, 0.00,60.00,Holiday
2695,-6.612260253295003
1929,18.00004197175328
3063,1699420.8620555353
3064,0.0
2,3, 1, 3, 0, 1, 0.00,60.00,Holiday
2695,-6.61404528256525
1929,18.00011229841746
3063,1682241.1613856049
3064,0.0
2,3, 1, 3, 0, 2, 0.00,60.00,Holiday
2695,-6.618213241540341
1929,18.000203689821203
3063,1662611.560298065
3064,0.0
2,3, 1, 3, 0, 3, 0.00,60.00,Holiday
2695,-6.625864418237367
1929,18.000244341287915
3063,1616408.238629737
3064,0.0
2,3, 1, 3, 0, 4, 0.00,60.00,Holiday
2695,-6.639089199703183
1929,18.000158903490037
3063,1656005.1891299179
3064,0.0
2,3, 1, 3, 0, 5, 0.00,60.00,Holiday
2695,-6.648714756216598
1929,18.000082621529704
3063,1732056.0825406942
3064,0.0
2,3, 1, 3, 0, 6, 0.00,60.00,Holiday
2695,-6.654350015825783
1929,18.00004074876775
3063,1783915.5670881398
3064,0.0
2,3, 1, 3, 0, 7, 0.00,60.00,Holiday
2695,-6.559771830704327
1929,18.000007558574035
3063,1853031.7841099357
3064,0.0
2,3, 1, 3, 0, 8, 0.00,60.00,Holiday
2695,-6.560250100676275
1929,18.000003603935935
3063,1878176.180279758
3064,0.0
2,3, 1, 3, 0, 9, 0.00,60.00,Holiday
2695,-6.060274278097784
1929,18.000000704092558
3063,1910216.4417103248
3064,0.0
2,3, 1, 3, 0,10, 0.00,60.00,Holiday
2695,-6.0610433924638908
1929,18.000000659989789
3063,1944615.3725239062
3064,0.0
2,3, 1, 3, 0,11, 0.00,60.00,Holiday
2695,-6.062010477709371
1929,18.000000626707786
3063,1980153.1185803544
3064,0.0
2,3, 1, 3, 0,12, 0.00,60.00,Holiday
2695,-6.0629301363989589
1929,18.000000595968733
3063,2012680.8514819716
3064,0.0
2,3, 1, 3, 0,13, 0.00,60.00,Holiday
2695,-6.0641073697678
1929,18.000000574574189
3063,2043605.8077025018
3064,0.0
2,3, 1, 3, 0,14, 0.00,60.00,Holiday
2695,-6.065312129565656
1929,18.00000055901118
3063,2074541.6696029029
3064,0.0
2,3, 1, 3, 0,15, 0.00,60.00,Holiday
2695,-6.066361138921645
1929,18.000000550205465
3063,2104943.9463673115
3064,0.0
2,3, 1, 3, 0,16, 0.00,60.00,Holiday
2695,-6.0670174325591559
1929,18.000000545781565
3063,2131968.7298039228
3064,0.0
2,3, 1, 3, 0,17, 0.00,60.00,Holiday
2695,-6.067170747438566
1929,18.000000540446338
3063,2160777.855640155
3064,0.0
2,3, 1, 3, 0,18, 0.00,60.00,Holiday
2695,-6.066471229664573
1929,18.000000541107583
3063,2181979.1133942876
3064,0.0
2,3, 1, 3, 0,19, 0.00,60.00,Holiday
2695,-6.5683664894021869
1929,18.00000053920675
3063,2199263.59381159
3064,0.0
2,3, 1, 3, 0,20, 0.00,60.00,Holiday
2695,-6.56627660686987
1929,18.000000545120526
3063,2212585.1098382056
3064,0.0
2,3, 1, 3, 0,21, 0.00,60.00,Holiday
2695,-6.5638269030616469
1929,18.000000553959159
3063,2219212.0488215729
3064,0.0
2,3, 1, 3, 0,22, 0.00,60.00,Holiday
2695,-6.5615645567967999
1929,18.000000564680563
3063,2220482.637209649
3064,0.0
2,3, 1, 3, 0,23, 0.00,60.00,Holiday
2695,-6.559932441652877
1929,18.000000580992585
3063,2222855.6385569705
3064,0.0
2,3, 1, 3, 0,24, 0.00,60.00,Holiday
2695,-6.558979614492999
1929,18.00000059778306
3063,2221029.588011119
3064,0.0
2,4, 1, 4, 0, 1, 0.00,60.00,Wednesday
2695,-6.5590264197638679
1929,18.00000061515469
3063,2227694.87184039
3064,0.0
2,4, 1, 4, 0, 2, 0.00,60.00,Wednesday
2695,-6.559345331830452
1929,18.000001923578819
3063,2232353.2892874598
3064,0.0
2,4, 1, 4, 0, 3, 0.00,60.00,Wednesday
2695,-6.560186516664062
1929,18.000001384790463
3063,2242329.5884593126
3064,0.0
2,4, 1, 4, 0, 4, 0.00,60.00,Wednesday
2695,-6.560883081341205
1929,18.000000670710425
3063,2255971.566973595
3064,0.0
2,4, 1, 4, 0, 5, 0.00,60.00,Wednesday
2695,-6.561208308564143
1929,18.00000068154181
3063,2272204.39176896
3064,0.0
2,4, 1, 4, 0, 6, 0.00,60.00,Wednesday
2695,-6.560974632134843
1929,18.000000695023247
3063,2283122.655299943
3064,0.0
2,4, 1, 4, 0, 7, 0.00,60.00,Wednesday
2695,-6.690348388655256
1929,18.00000070643838
3063,2288780.1136594295
3064,0.0
2,4, 1, 4, 0, 8, 0.00,60.00,Wednesday
2695,-6.688793930079947
1929,18.000025327901925
3063,2285344.620497278
3064,0.0
2,4, 1, 4, 0, 9, 0.00,60.00,Wednesday
2695,-6.152223459216277
1929,18.000205576064667
3063,2194792.946896122
3064,0.0
2,4, 1, 4, 0,10, 0.00,60.00,Wednesday
2695,-6.134726278035033
1929,18.000420134900606
3063,2040514.5393177386
3064,0.0
2,4, 1, 4, 0,11, 0.00,60.00,Wednesday
2695,-6.128724981135339
1929,18.00051027319934
3063,1953298.30540734
3064,0.0
2,4, 1, 4, 0,12, 0.00,60.00,Wednesday
2695,-6.1296674160272099
1929,18.000489526684885
3063,1893620.406339011
3064,0.0
2,4, 1, 4, 0,13, 0.00,60.00,Wednesday
2695,-6.131480167125662
1929,18.000475439423018
3063,1858732.1049430627
3064,0.0
2,4, 1, 4, 0,14, 0.00,60.00,Wednesday
2695,-6.1320830475852079
1929,18.000411338378226
3063,1773756.832143921
3064,0.0
2,4, 1, 4, 0,15, 0.00,60.00,Wednesday
2695,-6.12663872517427
1929,18.000292727540935
3063,1568618.5138106466
3064,0.0
2,4, 1, 4, 0,16, 0.00,60.00,Wednesday
2695,-6.116126959762735
1929,18.000224641669566
3063,1401255.4676329406
3064,0.0
2,4, 1, 4, 0,17, 0.00,60.00,Wednesday
2695,-6.105424110221281
1929,18.000223257212004
3063,1314480.9389306536
3064,0.0
2,4, 1, 4, 0,18, 0.00,60.00,Wednesday
2695,-6.099505632379748
1929,18.000247436204487
3063,1317608.917403859
3064,0.0
2,4, 1, 4, 0,19, 0.00,60.00,Wednesday
2695,-6.619153080524722
1929,18.00040320021223
3063,1789348.9922168889
3064,0.0
2,4, 1, 4, 0,20, 0.00,60.00,Wednesday
2695,-6.6312969216780799
1929,18.000275141728648
3063,1850524.3811488506
3064,0.0
2,4, 1, 4, 0,21, 0.00,60.00,Wednesday
2695,-6.640016961616382
1929,18.000255338476383
3063,1972367.0457615648
3064,0.0
2,4, 1, 4, 0,22, 0.00,60.00,Wednesday
2695,-6.646776485301051
1929,18.00019247051819
3063,1988392.9638781769
3064,0.0
2,4, 1, 4, 0,23, 0.00,60.00,Wednesday
2695,-6.651855951040003
1929,18.000147741325333
3063,1996354.044695584
3064,0.0
2,4, 1, 4, 0,24, 0.00,60.00,Wednesday
2695,-6.656178770821249
1929,18.000131249580677
3063,1999251.2906482523
3064,0.0
2,5, 1, 5, 0, 1, 0.00,60.00,Thursday
2695,-6.660863830103789
1929,18.0001185556123
3063,2005815.8714772235
3064,0.0
2,5, 1, 5, 0, 2, 0.00,60.00,Thursday
2695,-6.6651902331139329
1929,18.000112633050663
3063,2013476.198336269
3064,0.0
2,5, 1, 5, 0, 3, 0.00,60.00,Thursday
2695,-6.669217793806836
1929,18.000127103577424
3063,2017770.070673491
3064,0.0
2,5, 1, 5, 0, 4, 0.00,60.00,Thursday
2695,-6.673840521385283
1929,18.000158472677584
3063,2019520.8773048283
3064,0.0
2,5, 1, 5, 0, 5, 0.00,60.00,Thursday
2695,-6.6792091392329999
1929,18.000163719851189
3063,2030797.635617417
3064,0.0
2,5, 1, 5, 0, 6, 0.00,60.00,Thursday
2695,-6.684508694994626
1929,18.000150885318459
3063,2046366.2680678049
3064,0.0
2,5, 1, 5, 0, 7, 0.00,60.00,Thursday
2695,-6.70129213670873
1929,18.00016309500216
3063,2052799.6816630786
3064,0.0
2,5, 1, 5, 0, 8, 0.00,60.00,Thursday
2695,-6.705391252401957
1929,18.000155598114295
3063,2065345.5535780397
3064,0.0
2,5, 1, 5, 0, 9, 0.00,60.00,Thursday
2695,-6.170407681824724
1929,18.00022600377706
3063,1998793.7751985007
3064,0.0
2,5, 1, 5, 0,10, 0.00,60.00,Thursday
2695,-6.1530055663521578
1929,18.000365642351964
3063,1857431.728884519
3064,0.0
2,5, 1, 5, 0,11, 0.00,60.00,Thursday
2695,-6.14333183265268
1929,18.000422568733538
3063,1765217.835349621
3064,0.0
2,5, 1, 5, 0,12, 0.00,60.00,Thursday
2695,-6.139483215994787
1929,18.000415784291719
3063,1703037.2286730274
3064,0.0
2,5, 1, 5, 0,13, 0.00,60.00,Thursday
2695,-6.137538548798265
1929,18.000390091182934
3063,1683294.8066942816
3064,0.0
2,5, 1, 5, 0,14, 0.00,60.00,Thursday
2695,-6.133554955101608
1929,18.00036410888964
3063,1620328.1865780876
3064,0.0
2,5, 1, 5, 0,15, 0.00,60.00,Thursday
2695,-6.12795225076916
1929,18.00032021585214
3063,1484454.5224956838
3064,0.0
2,5, 1, 5, 0,16, 0.00,60.00,Thursday
2695,-6.122739497847981
1929,18.000295037010358
3063,1390957.2050729553
3064,0.0
2,5, 1, 5, 0,17, 0.00,60.00,Thursday
2695,-6.118093771364742
1929,18.00026246217376
3063,1297867.3410828603
3064,0.0
2,5, 1, 5, 0,18, 0.00,60.00,Thursday
2695,-6.113650342228961
1929,18.00023711773204
3063,1212976.1218506904
3064,0.0
2,5, 1, 5, 0,19, 0.00,60.00,Thursday
2695,-6.63605646165741
1929,18.000375959319834
3063,1613249.7068907873
3064,0.0
2,5, 1, 5, 0,20, 0.00,60.00,Thursday
2695,-6.648711531454366
1929,18.000259049417
3063,1651013.907746892
3064,0.0
2,5, 1, 5, 0,21, 0.00,60.00,Thursday
2695,-6.658056484706827
1929,18.00026801400623
3063,1820927.812455455
3064,0.0
2,5, 1, 5, 0,22, 0.00,60.00,Thursday
2695,-6.665657743002491
1929,18.00023474244054
3063,1836388.5521912473
3064,0.0
2,5, 1, 5, 0,23, 0.00,60.00,Thursday
2695,-6.67218502895479
1929,18.00018662939517
3063,1853183.4156294745
3064,0.0
2,5, 1, 5, 0,24, 0.00,60.00,Thursday
2695,-6.677254064408686
1929,18.000092479835798
3063,1882983.33566568
3064,0.0
2,6, 1, 6, 0, 1, 0.00,60.00,Friday
2695,-6.679665132567334
1929,18.000037903802128
3063,1899581.86525879
3064,0.0
2,6, 1, 6, 0, 2, 0.00,60.00,Friday
2695,-6.68120183757451
1929,18.000004673562456
3063,1917927.0673269742
3064,0.0
2,6, 1, 6, 0, 3, 0.00,60.00,Friday
2695,-6.681684232136075
1929,18.000000504044527
3063,1938194.9343404668
3064,0.0
2,6, 1, 6, 0, 4, 0.00,60.00,Friday
2695,-6.68121271490552
1929,18.000000521736209
3063,1954261.000427606
3064,0.0
2,6, 1, 6, 0, 5, 0.00,60.00,Friday
2695,-6.680229846028104
1929,18.000000533212828
3063,1967306.1913440286
3064,0.0
2,6, 1, 6, 0, 6, 0.00,60.00,Friday
2695,-6.6791254477058
1929,18.000000539768238
3063,1980047.5577944476
3064,0.0
2,6, 1, 6, 0, 7, 0.00,60.00,Friday
2695,-6.675379971772494
1929,18.000000546424386
3063,1981614.348701209
3064,0.0
2,6, 1, 6, 0, 8, 0.00,60.00,Friday
2695,-6.673992908318559
1929,18.000019289271763
3063,1976372.3560000824
3064,0.0
2,6, 1, 6, 0, 9, 0.00,60.00,Friday
2695,-6.140492997975808
1929,18.00016690469987
3063,1856428.8057907685
3064,0.0
2,6, 1, 6, 0,10, 0.00,60.00,Friday
2695,-6.121239554374558
1929,18.000296961008279
3063,1577777.8790570102
3064,0.0
2,6, 1, 6, 0,11, 0.00,60.00,Friday
2695,-6.112349674082966
1929,18.000306295763804
3063,1386993.21642594
3064,0.0
2,6, 1, 6, 0,12, 0.00,60.00,Friday
2695,-6.109951958967353
1929,18.000239905203086
3063,1220106.5811345899
3064,0.0
2,6, 1, 6, 0,13, 0.00,60.00,Friday
2695,-6.108619586069899
1929,18.000212326393269
3063,1142716.5697587114
3064,0.0
2,6, 1, 6, 0,14, 0.00,60.00,Friday
2695,-6.105765111376652
1929,18.000162091435127
3063,950751.0460293181
3064,0.0
2,6, 1, 6, 0,15, 0.00,60.00,Friday
2695,-6.078491284849161
1929,18.146549193268326
3063,515071.5816810024
3064,0.0
2,6, 1, 6, 0,16, 0.00,60.00,Friday
2695,-6.015520689916108
1929,18.40470646190988
3063,213178.01230977459
3064,0.0
2,6, 1, 6, 0,17, 0.00,60.00,Friday
2695,-5.965379318195008
1929,18.538629239875627
3063,54762.03334420521
3064,0.0
2,6, 1, 6, 0,18, 0.00,60.00,Friday
2695,-5.9469580254235618
1929,18.535335586311704
3063,38539.374698213345
3064,0.0
2,6, 1, 6, 0,19, 0.00,60.00,Friday
2695,-6.513171662665438
1929,18.021145900097975
3063,969167.8960945815
3064,0.0
2,6, 1, 6, 0,20, 0.00,60.00,Friday
2695,-6.54410518629562
1929,18.00016608778829
3063,969972.2184762214
3064,0.0
2,6, 1, 6, 0,21, 0.00,60.00,Friday
2695,-6.5489929611419479
1929,18.000243429155807
3063,1246336.7440939383
3064,0.0
2,6, 1, 6, 0,22, 0.00,60.00,Friday
2695,-6.550941377915058
1929,18.000205820867035
3063,1216373.6728636379
3064,0.0
2,6, 1, 6, 0,23, 0.00,60.00,Friday
2695,-6.552821249477507
1929,18.000194160535267
3063,1190222.5884876822
3064,0.0
2,6, 1, 6, 0,24, 0.00,60.00,Friday
2695,-6.555627078424441
1929,18.000194002490458
3063,1173447.8694857325
3064,0.0
2,7, 1, 7, 0, 1, 0.00,60.00,Saturday
2695,-6.55956374208213
1929,18.000184503809139
3063,1170011.9318909194
3064,0.0
2,7, 1, 7, 0, 2, 0.00,60.00,Saturday
2695,-6.564199049164341
1929,18.000188648421298
3063,1171598.8891304625
3064,0.0
2,7, 1, 7, 0, 3, 0.00,60.00,Saturday
2695,-6.569812862069019
1929,18.000206112554165
3063,1176702.450310624
3064,0.0
2,7, 1, 7, 0, 4, 0.00,60.00,Saturday
2695,-6.576754938955506
1929,18.000229805679223
3063,1185187.6331839597
3064,0.0
2,7, 1, 7, 0, 5, 0.00,60.00,Saturday
2695,-6.585281637852556
1929,18.000260109249017
3063,1174414.1990009598
3064,0.0
2,7, 1, 7, 0, 6, 0.00,60.00,Saturday
2695,-6.601045810736948
1929,18.000230287378416
3063,1129211.1766104098
3064,0.0
2,7, 1, 7, 0, 7, 0.00,60.00,Saturday
2695,-6.413015221010956
1929,18.00015696155117
3063,1208989.8777239295
3064,0.0
2,7, 1, 7, 0, 8, 0.00,60.00,Saturday
2695,-6.427036023066111
1929,18.000095799853147
3063,1289981.2293679068
3064,0.0
2,7, 1, 7, 0, 9, 0.00,60.00,Saturday
2695,-5.959031335277859
1929,18.000058964321679
3063,1356139.2023742996
3064,0.0
2,7, 1, 7, 0,10, 0.00,60.00,Saturday
2695,-5.965191041153197
1929,18.00004578209299
3063,1408485.716138076
3064,0.0
2,7, 1, 7, 0,11, 0.00,60.00,Saturday
2695,-5.970554216460261
1929,18.00003383110622
3063,1466250.4138470093
3064,0.0
2,7, 1, 7, 0,12, 0.00,60.00,Saturday
2695,-5.974872975331171
1929,18.00002350717175
3063,1517657.991768826
3064,0.0
2,7, 1, 7, 0,13, 0.00,60.00,Saturday
2695,-5.977711085737712
1929,18.000001767975424
3063,1560526.3167173574
3064,0.0
2,7, 1, 7, 0,14, 0.00,60.00,Saturday
2695,-5.9781312251622469
1929,18.000000235151654
3063,1590569.627052742
3064,0.0
2,7, 1, 7, 0,15, 0.00,60.00,Saturday
2695,-5.97518554616427
1929,18.00000015211958
3063,1604325.7694271438
3064,0.0
2,7, 1, 7, 0,16, 0.00,60.00,Saturday
2695,-5.967945573204201
1929,18.000000101969545
3063,1581718.9469402552
3064,0.0
2,7, 1, 7, 0,17, 0.00,60.00,Saturday
2695,-5.957682731215136
1929,18.000000087165735
3063,1492468.024453266
3064,0.0
2,7, 1, 7, 0,18, 0.00,60.00,Saturday
2695,-5.9476900408499679
1929,18.00000008622062
3063,1380951.4575487879
3064,0.0
2,7, 1, 7, 0,19, 0.00,60.00,Saturday
2695,-6.412078212199881
1929,18.00000008702128
3063,1277304.8715458967
3064,0.0
2,7, 1, 7, 0,20, 0.00,60.00,Saturday
2695,-6.401125496478012
1929,18.000000088625425
3063,1188042.707690585
3064,0.0
2,7, 1, 7, 0,21, 0.00,60.00,Saturday
2695,-6.391132690487389
1929,18.000000091294785
3063,1114564.5283143724
3064,0.0
2,7, 1, 7, 0,22, 0.00,60.00,Saturday
2695,-6.3829244392596549
1929,18.000000095240457
3063,1058721.6058287395
3064,0.0
2,7, 1, 7, 0,23, 0.00,60.00,Saturday
2695,-6.376829625591442
1929,18.000000099919459
3063,1019396.4564250946
3064,0.0
2,7, 1, 7, 0,24, 0.00,60.00,Saturday
2695,-6.372984897654617
1929,18.00000887979922
3063,994701.5725192028
3064,0.0
2,8, 1, 8, 0, 1, 0.00,60.00,Sunday
2695,-6.371120969352446
1929,18.000015532585448
3063,988922.1389203924
3064,0.0
2,8, 1, 8, 0, 2, 0.00,60.00,Sunday
2695,-6.370390512487401
1929,18.00001491118898
3063,994878.2482814969
3064,0.0
2,8, 1, 8, 0, 3, 0.00,60.00,Sunday
2695,-6.370621182432593
1929,18.000020027883087
3063,1007689.7740119334
3064,0.0
2,8, 1, 8, 0, 4, 0.00,60.00,Sunday
2695,-6.3717673443413889
1929,18.00002541268815
3063,1027548.255740684
3064,0.0
2,8, 1, 8, 0, 5, 0.00,60.00,Sunday
2695,-6.373661785258275
1929,18.00002307709759
3063,1055453.9918574547
3064,0.0
2,8, 1, 8, 0, 6, 0.00,60.00,Sunday
2695,-6.376042230052067
1929,18.000029241919326
3063,1084875.393261027
3064,0.0
2,8, 1, 8, 0, 7, 0.00,60.00,Sunday
2695,-6.588532181497345
1929,18.000039709275723
3063,1116299.9229757889
3064,0.0
2,8, 1, 8, 0, 8, 0.00,60.00,Sunday
2695,-6.5922488747269549
1929,18.00004582335367
3063,1151636.9390247334
3064,0.0
2,8, 1, 8, 0, 9, 0.00,60.00,Sunday
2695,-6.089690104828894
1929,18.000043647635889
3063,1191789.0066587392
3064,0.0
2,8, 1, 8, 0,10, 0.00,60.00,Sunday
2695,-6.093102184987356
1929,18.000034793027447
3063,1235252.2436054168
3064,0.0
2,8, 1, 8, 0,11, 0.00,60.00,Sunday
2695,-6.096347876714387
1929,18.000010941263537
3063,1283509.7923063825
3064,0.0
2,8, 1, 8, 0,12, 0.00,60.00,Sunday
2695,-6.0990889428443009
1929,18.000000170257314
3063,1326151.1875544929
3064,0.0
2,8, 1, 8, 0,13, 0.00,60.00,Sunday
2695,-6.101535335538352
1929,18.000003016305099
3063,1358208.6540834918
3064,0.0
2,8, 1, 8, 0,14, 0.00,60.00,Sunday
2695,-6.103577233621018
1929,18.000000682511268
3063,1383543.7390043028
3064,0.0
2,8, 1, 8, 0,15, 0.00,60.00,Sunday
2695,-6.104649809469637
1929,18.00000012343561
3063,1397081.254643884
3064,0.0
2,8, 1, 8, 0,16, 0.00,60.00,Sunday
2695,-6.104274350910699
1929,18.00000011176044
3063,1393083.6833559049
3064,0.0
2,8, 1, 8, 0,17, 0.00,60.00,Sunday
2695,-6.102176055208029
1929,18.000000103381706
3063,1367754.6461986909
3064,0.0
2,8, 1, 8, 0,18, 0.00,60.00,Sunday
2695,-6.098535783275626
1929,18.00000010004211
3063,1326693.6331051489
3064,0.0
2,8, 1, 8, 0,19, 0.00,60.00,Sunday
2695,-6.601589752662469
1929,18.000000102339297
3063,1270105.4419901798
3064,0.0
2,8, 1, 8, 0,20, 0.00,60.00,Sunday
2695,-6.595620900294051
1929,18.000000105887719
3063,1213556.2790789467
3064,0.0
2,8, 1, 8, 0,21, 0.00,60.00,Sunday
2695,-6.590424276465117
1929,18.00000010806313
3063,1175690.116475119
3064,0.0
2,8, 1, 8, 0,22, 0.00,60.00,Sunday
2695,-6.585877720524654
1929,18.000000107294608
3063,1159918.2277495419
3064,0.0
2,8, 1, 8, 0,23, 0.00,60.00,Sunday
2695,-6.581719223687792
1929,18.000000109692328
3063,1147381.0593780142
3064,0.0
2,8, 1, 8, 0,24, 0.00,60.00,Sunday
2695,-6.578888268349775
1929,18.000000121883
3063,1135595.9275556289
3064,0.0
2,9, 1, 9, 0, 1, 0.00,60.00,Monday
2695,-6.5781948530762739
1929,18.000004342246056
3063,1128977.7672785703
3064,0.0
2,9, 1, 9, 0, 2, 0.00,60.00,Monday
2695,-6.579193429397356
1929,18.00002528809085
3063,1135206.4162415383
3064,0.0
2,9, 1, 9, 0, 3, 0.00,60.00,Monday
2695,-6.5810394674895609
1929,18.000031303230533
3063,1154666.840453836
3064,0.0
2,9, 1, 9, 0, 4, 0.00,60.00,Monday
2695,-6.58345538879792
1929,18.000023179353979
3063,1183458.150552385
3064,0.0
2,9, 1, 9, 0, 5, 0.00,60.00,Monday
2695,-6.586059860867377
1929,18.00001090732126