Program Version,EnergyPlus, Version 8.7.0-78a111df4a, YMD=2019.05.28 05:48
1,5,Environment Title[],Latitude[deg],Longitude[deg],Time Zone[],Elevation[m]
2,6,Day of Simulation[],Month[],Day of Month[],DST Indicator[1=yes 0=no],Hour[],StartMinute[],EndMinute[],DayType
3,3,Cumulative Day of Simulation[],Month[],Day of Month[],DST Indicator[1=yes 0=no],DayType  ! When Daily Report Variables Requested
4,2,Cumulative Days of Simulation[],Month[]  ! When Monthly Report Variables Requested
5,1,Cumulative Days of Simulation[] ! When Run Period Report Variables Requested
4826,1,BEDROOM2.2,Zone Ideal Loads Zone Total Heating Energy [J] !Hourly
4827,1,BEDROOM2.2,Zone Ideal Loads Zone Total Cooling Energy [J] !Hourly
4973,1,BEDROOM2.2,Zone Thermal Comfort Fanger Model PMV [] !Hourly
End of Data Dictionary
1,RUNPERIOD,  29.58, 106.47,   8.00, 259.10
2,1, 1, 1, 0, 1, 0.00,60.00,Thursday
4973,-1.0507412637228058
4826,2228939.3691617606
4827,7.515609468100593e-8
2,1, 1, 1, 0, 2, 0.00,60.00,Thursday
4973,-1.0434087308666893
4826,2240136.023551682
4827,8.789129424258135e-8
2,1, 1, 1, 0, 3, 0.00,60.00,Thursday
4973,-1.035755648309085
4826,2178346.9093576588
4827,1.2564669304993004e-7
2,1, 1, 1, 0, 4, 0.00,60.00,Thursday
4973,-1.0293685532855866
4826,2148081.5555676554
4827,8.072902346611954e-8
2,1, 1, 1, 0, 5, 0.00,60.00,Thursday
4973,-1.0259975833386866
4826,2165491.5159619457
4827,9.894165486912243e-8
2,1, 1, 1, 0, 6, 0.00,60.00,Thursday
4973,-1.0257009195390606
4826,2187834.118087285
4827,1.374132807541173e-7
2,1, 1, 1, 0, 7, 0.00,60.00,Thursday
4973,-1.0274194676831994
4826,2204750.0161632618
4827,2.7625901566352696e-8
2,1, 1, 1, 0, 8, 0.00,60.00,Thursday
4973,-1.6431784787855369
4826,0.0
4827,0.0
2,1, 1, 1, 0, 9, 0.00,60.00,Thursday
4973,-2.0046787319516858
4826,0.0
4827,0.0
2,1, 1, 1, 0,10, 0.00,60.00,Thursday
4973,-2.048514166445711
4826,0.0
4827,0.0
2,1, 1, 1, 0,11, 0.00,60.00,Thursday
4973,-2.0545926699663465
4826,0.0
4827,0.0
2,1, 1, 1, 0,12, 0.00,60.00,Thursday
4973,-2.0497407309666748
4826,0.0
4827,0.0
2,1, 1, 1, 0,13, 0.00,60.00,Thursday
4973,-2.0323489936838659
4826,0.0
4827,0.0
2,1, 1, 1, 0,14, 0.00,60.00,Thursday
4973,-1.9971017094139548
4826,0.0
4827,0.0
2,1, 1, 1, 0,15, 0.00,60.00,Thursday
4973,-1.9520485130062298
4826,0.0
4827,0.0
2,1, 1, 1, 0,16, 0.00,60.00,Thursday
4973,-1.893845003389546
4826,0.0
4827,0.0
2,1, 1, 1, 0,17, 0.00,60.00,Thursday
4973,-1.8268307226149212
4826,0.0
4827,0.0
2,1, 1, 1, 0,18, 0.00,60.00,Thursday
4973,-1.7681610320010544
4826,0.0
4827,0.0
2,1, 1, 1, 0,19, 0.00,60.00,Thursday
4973,-1.7217925295486168
4826,0.0
4827,0.0
2,1, 1, 1, 0,20, 0.00,60.00,Thursday
4973,-1.6958653223436034
4826,0.0
4827,0.0
2,1, 1, 1, 0,21, 0.00,60.00,Thursday
4973,-1.7349418881928565
4826,0.0
4827,0.0
2,1, 1, 1, 0,22, 0.00,60.00,Thursday
4973,-1.2355355353362275
4826,2836145.3415821117
4827,8.901679393602535e-9
2,1, 1, 1, 0,23, 0.00,60.00,Thursday
4973,-1.060485921498819
4826,2111420.8665602367
4827,1.0242047210340388e-7
2,1, 1, 1, 0,24, 0.00,60.00,Thursday
4973,-1.0566211823133452
4826,2013575.8721698574
4827,1.964508555829525e-8
2,2, 1, 2, 0, 1, 0.00,60.00,Friday
4973,-1.054279878966127
4826,2207394.4682792678
4827,9.121446386085486e-8
2,2, 1, 2, 0, 2, 0.00,60.00,Friday
4973,-1.0524220758560097
4826,2206106.6646985805
4827,5.085212251287885e-8
2,2, 1, 2, 0, 3, 0.00,60.00,Friday
4973,-1.0512954917096345
4826,2209542.623264051
4827,4.941966835758649e-8
2,2, 1, 2, 0, 4, 0.00,60.00,Friday
4973,-1.0480811731655225
4826,2205062.2808711889
4827,7.213429853436537e-8
2,2, 1, 2, 0, 5, 0.00,60.00,Friday
4973,-1.0439735825668435
4826,2193181.3348455035
4827,6.374420991051011e-8
2,2, 1, 2, 0, 6, 0.00,60.00,Friday
4973,-1.0397472257326948
4826,2184369.9151042716
4827,4.553157850750722e-8
2,2, 1, 2, 0, 7, 0.00,60.00,Friday
4973,-1.0356320241184239
4826,2171480.2644144247
4827,5.300080374581739e-8
2,2, 1, 2, 0, 8, 0.00,60.00,Friday
4973,-1.6041833462634685
4826,0.0
4827,0.0
2,2, 1, 2, 0, 9, 0.00,60.00,Friday
4973,-1.9247224057246122
4826,0.0
4827,0.0
2,2, 1, 2, 0,10, 0.00,60.00,Friday
4973,-1.9142423587970432
4826,0.0
4827,0.0
2,2, 1, 2, 0,11, 0.00,60.00,Friday
4973,-1.8967773031578757
4826,0.0
4827,0.0
2,2, 1, 2, 0,12, 0.00,60.00,Friday
4973,-1.883834190509395
4826,0.0
4827,0.0
2,2, 1, 2, 0,13, 0.00,60.00,Friday
4973,-1.8694774405202952
4826,0.0
4827,0.0
2,2, 1, 2, 0,14, 0.00,60.00,Friday
4973,-1.8544957552611133
4826,0.0
4827,0.0
2,2, 1, 2, 0,15, 0.00,60.00,Friday
4973,-1.8284861607382784
4826,0.0
4827,0.0
2,2, 1, 2, 0,16, 0.00,60.00,Friday
4973,-1.7946056573441827
4826,0.0
4827,0.0
2,2, 1, 2, 0,17, 0.00,60.00,Friday
4973,-1.7737893519237249
4826,0.0
4827,0.0
2,2, 1, 2, 0,18, 0.00,60.00,Friday
4973,-1.7955713259093494
4826,0.0
4827,0.0
2,2, 1, 2, 0,19, 0.00,60.00,Friday
4973,-1.8370383096945387
4826,0.0
4827,0.0
2,2, 1, 2, 0,20, 0.00,60.00,Friday
4973,-1.8631581026890989
4826,0.0
4827,0.0
2,2, 1, 2, 0,21, 0.00,60.00,Friday
4973,-1.8904841184525748
4826,0.0
4827,0.0
2,2, 1, 2, 0,22, 0.00,60.00,Friday
4973,-1.2842689318896672
4826,3114548.705380902
4827,7.00470081937965e-8
2,2, 1, 2, 0,23, 0.00,60.00,Friday
4973,-1.069640807772418
4826,2151211.8941606858
4827,6.538130037370138e-8
2,2, 1, 2, 0,24, 0.00,60.00,Friday
4973,-1.0524999038871337
4826,2038163.2198952162
4827,6.24140739091672e-8
2,3, 1, 3, 0, 1, 0.00,60.00,Saturday
4973,-1.0452764908098576
4826,2243135.445321734
4827,8.219589372774036e-8
2,3, 1, 3, 0, 2, 0.00,60.00,Saturday
4973,-1.0427612959921593
4826,2276272.391300516
4827,8.287770469905809e-8
2,3, 1, 3, 0, 3, 0.00,60.00,Saturday
4973,-1.044881847734241
4826,2288213.463729488
4827,1.0446683518239297e-7
2,3, 1, 3, 0, 4, 0.00,60.00,Saturday
4973,-1.0465617679476025
4826,2285211.8756033314
4827,4.297362465877086e-8
2,3, 1, 3, 0, 5, 0.00,60.00,Saturday
4973,-1.0465799679502149
4826,2272029.110598004
4827,7.131575330276974e-8
2,3, 1, 3, 0, 6, 0.00,60.00,Saturday
4973,-1.044921705770433
4826,2243458.703515201
4827,2.9058355721645058e-8
2,3, 1, 3, 0, 7, 0.00,60.00,Saturday
4973,-1.041396095342811
4826,2196618.961300052
4827,5.729816621169448e-8
2,3, 1, 3, 0, 8, 0.00,60.00,Saturday
4973,-1.035917937702692
4826,2145163.5242566817
4827,6.397272045433056e-8
2,3, 1, 3, 0, 9, 0.00,60.00,Saturday
4973,-1.0312161098802846
4826,2146083.2905840107
4827,6.12885742157232e-8
2,3, 1, 3, 0,10, 0.00,60.00,Saturday
4973,-1.0263009597568785
4826,2093153.0403373559
4827,2.3533175408374519e-8
2,3, 1, 3, 0,11, 0.00,60.00,Saturday
4973,-1.022200700112752
4826,2100431.726897881
4827,7.9705841926625e-8
2,3, 1, 3, 0,12, 0.00,60.00,Saturday
4973,-1.0188377175505484
4826,2055097.0558256806
4827,2.7114310796605424e-8
2,3, 1, 3, 0,13, 0.00,60.00,Saturday
4973,-1.0149375116417812
4826,2014398.5356807099
4827,3.437889972701669e-8
2,3, 1, 3, 0,14, 0.00,60.00,Saturday
4973,-1.010867505147948
4826,1977471.6206395182
4827,2.4556356947869064e-8
2,3, 1, 3, 0,15, 0.00,60.00,Saturday
4973,-1.0059663265904418
4826,1908369.0285307044
4827,4.1029579733731228e-8
2,3, 1, 3, 0,16, 0.00,60.00,Saturday
4973,-0.9996133074989988
4826,1890267.0315478137
4827,2.9262992029543967e-8
2,3, 1, 3, 0,17, 0.00,60.00,Saturday
4973,-0.9947157049187423
4826,1919543.2322549863
4827,3.949480742448941e-8
2,3, 1, 3, 0,18, 0.00,60.00,Saturday
4973,-0.9902922697526586
4826,1901668.7655632003
4827,1.61662683240138e-8
2,3, 1, 3, 0,19, 0.00,60.00,Saturday
4973,-0.9838600793985468
4826,1868570.0058304119
4827,2.3635493562323974e-8
2,3, 1, 3, 0,20, 0.00,60.00,Saturday
4973,-0.9767021530272422
4826,1727329.094794471
4827,3.959712557843886e-8
2,3, 1, 3, 0,21, 0.00,60.00,Saturday
4973,-0.9688724216537661
4826,1657214.7998473687
4827,3.693685357575305e-8
2,3, 1, 3, 0,22, 0.00,60.00,Saturday
4973,-0.9609123980582097
4826,1630764.9522333099
4827,4.3587533582467589e-8
2,3, 1, 3, 0,23, 0.00,60.00,Saturday
4973,-0.954601598877435
4826,1618534.2594768787
4827,2.7625901566352696e-8
2,3, 1, 3, 0,24, 0.00,60.00,Saturday
4973,-0.9485531061081372
4826,1552315.8191112804
4827,1.8980017557623797e-8
2,4, 1, 4, 0, 1, 0.00,60.00,Sunday
4973,-0.9449896503566853
4826,1688821.6214582658
4827,5.784069990000944
2,4, 1, 4, 0, 2, 0.00,60.00,Sunday
4973,-0.9407121141750166
4826,1689157.7779741518
4827,6.318146006378811e-8
2,4, 1, 4, 0, 3, 0.00,60.00,Sunday
4973,-0.937578910704234
4826,1670429.4041200483
4827,6.476739145000465e-8
2,4, 1, 4, 0, 4, 0.00,60.00,Sunday
4973,-0.9344456357352451
4826,1657273.0980083785
4827,1.3352519090403803e-8
2,4, 1, 4, 0, 5, 0.00,60.00,Sunday
4973,-0.9309634444604928
4826,1648258.3919370184
4827,3.489049049676396e-8
2,4, 1, 4, 0, 6, 0.00,60.00,Sunday
4973,-0.9271931097214562
4826,1643327.1498548687
4827,2.5426061256439426e-8
2,4, 1, 4, 0, 7, 0.00,60.00,Sunday
4973,-0.923863326927877
4826,1637111.2275731816
4827,6.793925422243774e-8
2,4, 1, 4, 0, 8, 0.00,60.00,Sunday
4973,-0.9212294097405795
4826,1626150.4793905868
4827,5.32122612639796e-8
2,4, 1, 4, 0, 9, 0.00,60.00,Sunday
4973,-0.9206593125205134
4826,1665309.4751484136
4827,2.9621105568367058e-8
2,4, 1, 4, 0,10, 0.00,60.00,Sunday
4973,-0.9206373949824682
4826,1638452.2600067696
4827,3.3713831726345236e-8
2,4, 1, 4, 0,11, 0.00,60.00,Sunday
4973,-0.920949167056002
4826,1668478.7465410135
4827,6.758114068361465e-8
2,4, 1, 4, 0,12, 0.00,60.00,Sunday
4973,-0.9233587950727217
4826,1635739.5236019705
4827,2.6295765565009789e-8
2,4, 1, 4, 0,13, 0.00,60.00,Sunday
4973,-0.9243798941658837
4826,1594998.7666478302
4827,1.857074494182598e-8
2,4, 1, 4, 0,14, 0.00,60.00,Sunday
4973,-0.9246559511485452
4826,1541224.349130279
4827,3.0388491722987968e-8
2,4, 1, 4, 0,15, 0.00,60.00,Sunday
4973,-0.9217161272503976
4826,1434803.8178640928
4827,2.071942617476452e-8
2,4, 1, 4, 0,16, 0.00,60.00,Sunday
4973,-0.9139076838732111
4826,1382656.8907405483
4827,2.829096956702415e-8
2,4, 1, 4, 0,17, 0.00,60.00,Sunday
4973,-0.9059073434032084
4826,1417489.7837002958
4827,2.701199264265597e-8
2,4, 1, 4, 0,18, 0.00,60.00,Sunday
4973,-0.9017412877354927
4826,1429415.0591911339
4827,2.7779378797276878e-8
2,4, 1, 4, 0,19, 0.00,60.00,Sunday
4973,-0.8980209190073434
4826,1442307.0229393878
4827,6.839968591521029e-8
2,4, 1, 4, 0,20, 0.00,60.00,Sunday
4973,-0.894254230070449
4826,1346144.400973882
4827,4.374101081339177e-8
2,4, 1, 4, 0,21, 0.00,60.00,Sunday
4973,-0.8921582124431612
4826,1313380.163172606
4827,6.379536898748484e-8
2,4, 1, 4, 0,22, 0.00,60.00,Sunday
4973,-0.8901932972013847
4826,1310257.7326684697
4827,3.468585418886505e-8
2,4, 1, 4, 0,23, 0.00,60.00,Sunday
4973,-0.8882183955987038
4826,1306971.938210177
4827,3.468585418886505e-8
2,4, 1, 4, 0,24, 0.00,60.00,Sunday
4973,-0.8860188794100823
4826,1242004.7123745322
4827,4.2871306504821408e-8
2,5, 1, 5, 0, 1, 0.00,60.00,Monday
4973,-0.8860624090102534
4826,1375503.0755819334
4827,5.140975645190338e-8
2,5, 1, 5, 0, 2, 0.00,60.00,Monday
4973,-0.8853241029269664
4826,1371157.1063542157
4827,4.1387693272554318e-8
2,5, 1, 5, 0, 3, 0.00,60.00,Monday
4973,-0.8854304411717218
4826,1386286.845800261
4827,1.9184653865522706e-8
2,5, 1, 5, 0, 4, 0.00,60.00,Monday
4973,-0.8873239211422181
4826,1404110.7041502263
4827,2.1333335098461249e-8
2,5, 1, 5, 0, 5, 0.00,60.00,Monday
4973,-0.8904012926781979
4826,1416041.372892267
4827,1.9542767404345797e-8
2,5, 1, 5, 0, 6, 0.00,60.00,Monday
4973,-0.8931058126931064
4826,1429036.4491469856
4827,3.033733264601324e-8
2,5, 1, 5, 0, 7, 0.00,60.00,Monday
4973,-0.8956006723597507
4826,1442610.833213009
4827,3.7704239730373959e-8
2,5, 1, 5, 0, 8, 0.00,60.00,Monday
4973,-1.3894867230548756
4826,0.0
4827,0.0
2,5, 1, 5, 0, 9, 0.00,60.00,Monday
4973,-1.6570922808047937
4826,0.0
4827,0.0
2,5, 1, 5, 0,10, 0.00,60.00,Monday
4973,-1.6771220237236527
4826,0.0
4827,0.0
2,5, 1, 5, 0,11, 0.00,60.00,Monday
4973,-1.6878215085510978
4826,0.0
4827,0.0
2,5, 1, 5, 0,12, 0.00,60.00,Monday
4973,-1.6958848190819862
4826,0.0
4827,0.0
2,5, 1, 5, 0,13, 0.00,60.00,Monday
4973,-1.6993182048472018
4826,0.0
4827,0.0
2,5, 1, 5, 0,14, 0.00,60.00,Monday
4973,-1.6957960158734427
4826,0.0
4827,0.0
2,5, 1, 5, 0,15, 0.00,60.00,Monday
4973,-1.6900788028499683
4826,0.0
4827,0.0
2,5, 1, 5, 0,16, 0.00,60.00,Monday
4973,-1.6822218383202659
4826,0.0
4827,0.0
2,5, 1, 5, 0,17, 0.00,60.00,Monday
4973,-1.6789836771050495
4826,0.0
4827,0.0
2,5, 1, 5, 0,18, 0.00,60.00,Monday
4973,-1.6776231586982942
4826,0.0
4827,0.0
2,5, 1, 5, 0,19, 0.00,60.00,Monday
4973,-1.6787909210793935
4826,0.0
4827,0.0
2,5, 1, 5, 0,20, 0.00,60.00,Monday
4973,-1.6712799667016603
4826,0.0
4827,0.0
2,5, 1, 5, 0,21, 0.00,60.00,Monday
4973,-1.6856815442033342
4826,0.0
4827,0.0
2,5, 1, 5, 0,22, 0.00,60.00,Monday
4973,-1.1725814726726982
4826,2478127.4089278618
4827,4.210050974506885e-8
2,5, 1, 5, 0,23, 0.00,60.00,Monday
4973,-0.9933878147490332
4826,1674087.1024407219
4827,2.6705038180807607e-8
2,5, 1, 5, 0,24, 0.00,60.00,Monday
4973,-0.9818354428888483
4826,1567726.2115537464
4827,7.356675268965773e-8
2,6, 1, 6, 0, 1, 0.00,60.00,Tuesday
4973,-0.9730292395294913
4826,1756316.9712566455
4827,5.134491626852196
2,6, 1, 6, 0, 2, 0.00,60.00,Tuesday
4973,-0.9658690487501949
4826,1756798.870106417
4827,3.934133019356523e-8
2,6, 1, 6, 0, 3, 0.00,60.00,Tuesday
4973,-0.9582691820094238
4826,1715657.457582684
4827,3.709033080667723e-8
2,6, 1, 6, 0, 4, 0.00,60.00,Tuesday
4973,-0.9509553754513855
4826,1686781.9936186362
4827,3.049080987693742e-8
2,6, 1, 6, 0, 5, 0.00,60.00,Tuesday
4973,-0.9441799827716881
4826,1674218.471162361
4827,8.61007265484659e-8
2,6, 1, 6, 0, 6, 0.00,60.00,Tuesday
4973,-0.9379545315074896
4826,1658610.2073559189
4827,6.942286745470483e-8
2,6, 1, 6, 0, 7, 0.00,60.00,Tuesday
4973,-0.9327361892294045
4826,1644628.9653804373
4827,1.9338131096446888e-8
2,6, 1, 6, 0, 8, 0.00,60.00,Tuesday
4973,-1.4256654798919502
4826,0.0
4827,0.0
2,6, 1, 6, 0, 9, 0.00,60.00,Tuesday
4973,-1.7031603372428668
4826,0.0
4827,0.0
2,6, 1, 6, 0,10, 0.00,60.00,Tuesday
4973,-1.70466270672305
4826,0.0
4827,0.0
2,6, 1, 6, 0,11, 0.00,60.00,Tuesday
4973,-1.689506207889292
4826,0.0
4827,0.0
2,6, 1, 6, 0,12, 0.00,60.00,Tuesday
4973,-1.670742317680222
4826,0.0
4827,0.0
2,6, 1, 6, 0,13, 0.00,60.00,Tuesday
4973,-1.643843500000465
4826,0.0
4827,0.0
2,6, 1, 6, 0,14, 0.00,60.00,Tuesday
4973,-1.6032946884714603
4826,0.0
4827,0.0
2,6, 1, 6, 0,15, 0.00,60.00,Tuesday
4973,-1.5607370673590806
4826,0.0
4827,0.0
2,6, 1, 6, 0,16, 0.00,60.00,Tuesday
4973,-1.5072982795481656
4826,0.0
4827,0.0
2,6, 1, 6, 0,17, 0.00,60.00,Tuesday
4973,-1.4721365694965037
4826,0.0
4827,0.0
2,6, 1, 6, 0,18, 0.00,60.00,Tuesday
4973,-1.4821697657660807
4826,0.0
4827,0.0
2,6, 1, 6, 0,19, 0.00,60.00,Tuesday
4973,-1.5145728734390765
4826,0.0
4827,0.0
2,6, 1, 6, 0,20, 0.00,60.00,Tuesday
4973,-1.5361824632416015
4826,0.0
4827,0.0
2,6, 1, 6, 0,21, 0.00,60.00,Tuesday
4973,-1.5676539912492682
4826,0.0
4827,0.0
2,6, 1, 6, 0,22, 0.00,60.00,Tuesday
4973,-1.1142073016190509
4826,2242695.145401712
4827,7.760320386296371e-8
2,6, 1, 6, 0,23, 0.00,60.00,Tuesday
4973,-0.9562009248093293
4826,1566598.2789672258
4827,1.0487610779819079e-8
2,6, 1, 6, 0,24, 0.00,60.00,Tuesday
4973,-0.9467254445638343
4826,1475445.8773075478
4827,2.7421265258453788e-8
2,7, 1, 7, 0, 1, 0.00,60.00,Wednesday
4973,-0.9426526490648087
4826,1676342.9818371046
4827,6.76673802705149e-8
2,7, 1, 7, 0, 2, 0.00,60.00,Wednesday
4973,-0.9407509102651999
4826,1695660.4652569714
4827,1.0006715456256643e-7
2,7, 1, 7, 0, 3, 0.00,60.00,Wednesday
4973,-0.9408756741834412
4826,1728458.2707378367
4827,5.1670667744474488e-8
2,7, 1, 7, 0, 4, 0.00,60.00,Wednesday
4973,-0.942768348183409
4826,1777219.39763023
4827,3.9750602809363048e-8
2,7, 1, 7, 0, 5, 0.00,60.00,Wednesday
4973,-0.9466436902908854
4826,1840737.9636571797
4827,5.745164344261866e-8
2,7, 1, 7, 0, 6, 0.00,60.00,Wednesday
4973,-0.9521575895613836
4826,1901174.684370533
4827,4.256435204297304e-8
2,7, 1, 7, 0, 7, 0.00,60.00,Wednesday
4973,-0.9577772668161231
4826,1950576.2175130519
4827,7.776179700158537e-9
2,7, 1, 7, 0, 8, 0.00,60.00,Wednesday
4973,-1.5811237554532134
4826,0.0
4827,0.0
2,7, 1, 7, 0, 9, 0.00,60.00,Wednesday
4973,-1.9123592136490875
4826,0.0
4827,0.0
2,7, 1, 7, 0,10, 0.00,60.00,Wednesday
4973,-1.9373231416024968
4826,0.0
4827,0.0
2,7, 1, 7, 0,11, 0.00,60.00,Wednesday
4973,-1.9391503062052738
4826,0.0
4827,0.0
2,7, 1, 7, 0,12, 0.00,60.00,Wednesday
4973,-1.9183520789857363
4826,0.0
4827,0.0
2,7, 1, 7, 0,13, 0.00,60.00,Wednesday
4973,-1.8698701450363569
4826,0.0
4827,0.0
2,7, 1, 7, 0,14, 0.00,60.00,Wednesday
4973,-1.7926191487905974
4826,0.0
4827,0.0
2,7, 1, 7, 0,15, 0.00,60.00,Wednesday
4973,-1.6927320441427552
4826,0.0
4827,0.0
2,7, 1, 7, 0,16, 0.00,60.00,Wednesday
4973,-1.5735749814495886
4826,0.0
4827,0.0
2,7, 1, 7, 0,17, 0.00,60.00,Wednesday
4973,-1.4923048676217584
4826,0.0
4827,0.0
2,7, 1, 7, 0,18, 0.00,60.00,Wednesday
4973,-1.50597375298569
4826,0.0
4827,0.0
2,7, 1, 7, 0,19, 0.00,60.00,Wednesday
4973,-1.5359854811217542
4826,0.0
4827,0.0
2,7, 1, 7, 0,20, 0.00,60.00,Wednesday
4973,-1.5565116438562555
4826,0.0
4827,0.0
2,7, 1, 7, 0,21, 0.00,60.00,Wednesday
4973,-1.5801468811793554
4826,0.0
4827,0.0
2,7, 1, 7, 0,22, 0.00,60.00,Wednesday
4973,-1.1425085931572537
4826,2200922.5223435058
4827,3.2656544135534207e-8
2,7, 1, 7, 0,23, 0.00,60.00,Wednesday
4973,-0.9919792584207824
4826,1580828.5266047372
4827,1.0682015272323042e-7
2,7, 1, 7, 0,24, 0.00,60.00,Wednesday
4973,-0.9817755901474552
4826,1493396.4024894706
4827,5.289848559186794e-8
2,8, 1, 8, 0, 1, 0.00,60.00,Thursday
4973,-0.9764611612665337
4826,1695623.2497142638
4827,4.740697407284573e-8
2,8, 1, 8, 0, 2, 0.00,60.00,Thursday
4973,-0.9717215712414993
4826,1704555.6746016816
4827,8.615188562544063e-8
2,8, 1, 8, 0, 3, 0.00,60.00,Thursday
4973,-0.967503666396637
4826,1726691.220882555
4827,1.0231815394945443e-8
2,8, 1, 8, 0, 4, 0.00,60.00,Thursday
4973,-0.9639641179816316
4826,1746083.7916154778
4827,4.149001142650377e-8
2,8, 1, 8, 0, 5, 0.00,60.00,Thursday
4973,-0.9608462459587057
4826,1754444.670643045
4827,5.4075144362286667e-8
2,8, 1, 8, 0, 6, 0.00,60.00,Thursday
4973,-0.9576022860106357
4826,1761560.8465452537
4827,6.845084499218501e-8
2,8, 1, 8, 0, 7, 0.00,60.00,Thursday
4973,-0.9552615906298282
4826,1759226.282109674
4827,3.06442871078616e-8
2,8, 1, 8, 0, 8, 0.00,60.00,Thursday
4973,-1.4679961775910762
4826,0.0
4827,0.0
2,8, 1, 8, 0, 9, 0.00,60.00,Thursday
4973,-1.7554798755526413
4826,0.0
4827,0.0
2,8, 1, 8, 0,10, 0.00,60.00,Thursday
4973,-1.7584809078628907
4826,0.0
4827,0.0
2,8, 1, 8, 0,11, 0.00,60.00,Thursday
4973,-1.7486391396018615
4826,0.0
4827,0.0
2,8, 1, 8, 0,12, 0.00,60.00,Thursday
4973,-1.727528366968843
4826,0.0
4827,0.0
2,8, 1, 8, 0,13, 0.00,60.00,Thursday
4973,-1.703435576094726
4826,0.0
4827,0.0
2,8, 1, 8, 0,14, 0.00,60.00,Thursday
4973,-1.6780527142616336
4826,0.0
4827,0.0
2,8, 1, 8, 0,15, 0.00,60.00,Thursday
4973,-1.6539538458123609
4826,0.0
4827,0.0
2,8, 1, 8, 0,16, 0.00,60.00,Thursday
4973,-1.6339492526206896
4826,0.0
4827,0.0
2,8, 1, 8, 0,17, 0.00,60.00,Thursday
4973,-1.617622161181737
4826,0.0
4827,0.0
2,8, 1, 8, 0,18, 0.00,60.00,Thursday
4973,-1.6176009459658692
4826,0.0
4827,0.0
2,8, 1, 8, 0,19, 0.00,60.00,Thursday
4973,-1.6343041574587678
4826,0.0
4827,0.0
2,8, 1, 8, 0,20, 0.00,60.00,Thursday
4973,-1.6483398740362976
4826,0.0
4827,0.0
2,8, 1, 8, 0,21, 0.00,60.00,Thursday
4973,-1.6614070159320303
4826,0.0
4827,0.0
2,8, 1, 8, 0,22, 0.00,60.00,Thursday
4973,-1.1666581101865699
4826,2386559.1084165929
4827,5.84884674026398e-8
2,8, 1, 8, 0,23, 0.00,60.00,Thursday
4973,-0.9943590995519149
4826,1641894.785013036
4827,3.2792968340800147e-8
2,8, 1, 8, 0,24, 0.00,60.00,Thursday
4973,-0.9791470070646685
4826,1550802.5364747898
4827,5.832134775118902e-8
2,9, 1, 9, 0, 1, 0.00,60.00,Friday
4973,-0.9721543785583635
4826,1764468.0859336383
4827,7.533710036763555e-8
2,9, 1, 9, 0, 2, 0.00,60.00,Friday
4973,-0.9688293345993282
4826,1789580.0477618003
4827,7.904077392595355e-8
2,9, 1, 9, 0, 3, 0.00,60.00,Friday
4973,-0.9663406767995372
4826,1794161.2610196078
4827,5.7707438827492299e-8
2,9, 1, 9, 0, 4, 0.00,60.00,Friday
4973,-0.9630632855724897
4826,1782030.9055826157
4827,4.2103920350200499e-8
2,9, 1, 9, 0, 5, 0.00,60.00,Friday
4973,-0.9589332393628229
4826,1768469.6638706648
4827,2.9672264645341785e-9
2,9, 1, 9, 0, 6, 0.00,60.00,Friday
4973,-0.9547191383002108
4826,1757251.9738886534
4827,5.105675882077776e-8
2,9, 1, 9, 0, 7, 0.00,60.00,Friday
4973,-0.9514955559656386
4826,1746973.835927215
4827,4.844764589506667e-8
2,9, 1, 9, 0, 8, 0.00,60.00,Friday
4973,-1.4486706061113744
4826,0.0
4827,0.0
2,9, 1, 9, 0, 9, 0.00,60.00,Friday
4973,-1.744645818964864
4826,0.0
4827,0.0
2,9, 1, 9, 0,10, 0.00,60.00,Friday
4973,-1.7679684432632903
4826,0.0
4827,0.0
2,9, 1, 9, 0,11, 0.00,60.00,Friday
4973,-1.7709746456488305
4826,0.0
4827,0.0
2,9, 1, 9, 0,12, 0.00,60.00,Friday
4973,-1.7687376734090304
4826,0.0
4827,0.0
2,9, 1, 9, 0,13, 0.00,60.00,Friday
4973,-1.7658049249938599
4826,0.0
4827,0.0
2,9, 1, 9, 0,14, 0.00,60.00,Friday
4973,-1.7578829588592376
4826,0.0
4827,0.0
2,9, 1, 9, 0,15, 0.00,60.00,Friday
4973,-1.753924019072408
4826,0.0
4827,0.0
2,9, 1, 9, 0,16, 0.00,60.00,Friday
4973,-1.7498268457567277
4826,0.0
4827,0.0
2,9, 1, 9, 0,17, 0.00,60.00,Friday
4973,-1.7523076435832606
4826,0.0
4827,0.0
2,9, 1, 9, 0,18, 0.00,60.00,Friday
4973,-1.7609436469553144
4826,0.0
4827,0.0
2,9, 1, 9, 0,19, 0.00,60.00,Friday
4973,-1.7670827149291304
4826,0.0
4827,0.0
2,9, 1, 9, 0,20, 0.00,60.00,Friday
4973,-1.757422840919919
4826,0.0
4827,0.0
2,9, 1, 9, 0,21, 0.00,60.00,Friday
4973,-1.7555285442135498
4826,0.0
4827,0.0
2,9, 1, 9, 0,22, 0.00,60.00,Friday
4973,-1.2075023865509676
4826,2660306.185506173
4827,2.3456436792912428e-8
2,9, 1, 9, 0,23, 0.00,60.00,Friday
4973,-1.021255253036904
4826,1809197.3847668283
4827,6.870664037705865e-8
2,9, 1, 9, 0,24, 0.00,60.00,Friday
4973,-1.007376027664042
4826,1670378.138850452
4827,1.064108801074326e-8
2,10, 1,10, 0, 1, 0.00,60.00,Saturday
4973,-0.9991972769511829
4826,1826675.4173997893
4827,1.9724987721360777
2,10, 1,10, 0, 2, 0.00,60.00,Saturday
4973,-0.9928031381810436
4826,1801577.7719970013
4827,3.356035449542105e-8
2,10, 1,10, 0, 3, 0.00,60.00,Saturday
4973,-0.9871452691128184
4826,1765968.709554435
4827,6.144205144664738e-8
2,10, 1,10, 0, 4, 0.00,60.00,Saturday
4973,-0.9815663371659998
4826,1739171.839420703
4827,5.381934897741303e-8
2,10, 1,10, 0, 5, 0.00,60.00,Saturday
4973,-0.9758538690451203
4826,1722598.2443088729
4827,8.001279638847336e-8
2,10, 1,10, 0, 6, 0.00,60.00,Saturday
4973,-0.9705463993512696
4826,1713027.2364601293
4827,4.5633896661456677e-8
2,10, 1,10, 0, 7, 0.00,60.00,Saturday
4973,-0.9661674483798085
4826,1702998.3537839037
4827,6.062350621505175e-8
2,10, 1,10, 0, 8, 0.00,60.00,Saturday
4973,-0.9627031387545922
4826,1686644.9567082718
4827,5.097660960018402e-8
2,10, 1,10, 0, 9, 0.00,60.00,Saturday
4973,-0.9599607371184172
4826,1735794.7279730072
4827,5.008473635825794e-8
2,10, 1,10, 0,10, 0.00,60.00,Saturday
4973,-0.9577856876446445
4826,1710809.693343173
4827,5.801439328934066e-8
2,10, 1,10, 0,11, 0.00,60.00,Saturday
4973,-0.9561064938787768
4826,1722087.0175614944
4827,4.461071512196213e-8
2,10, 1,10, 0,12, 0.00,60.00,Saturday
4973,-0.9553013592021047
4826,1663802.7288530356
4827,2.7677060643327424e-8
2,10, 1,10, 0,13, 0.00,60.00,Saturday
4973,-0.9531756559105898
4826,1590543.1315841594
4827,2.128217602148652e-8
2,10, 1,10, 0,14, 0.00,60.00,Saturday
4973,-0.9501924317801225
4826,1510325.3544287747
4827,4.558273758448195e-8
2,10, 1,10, 0,15, 0.00,60.00,Saturday
4973,-0.9415802483810919
4826,1354960.6446362194
4827,2.6653879103832879e-8
2,10, 1,10, 0,16, 0.00,60.00,Saturday
4973,-0.9257484390652364
4826,1262092.1125119264
4827,0.0
2,10, 1,10, 0,17, 0.00,60.00,Saturday
4973,-0.9098785383550189
4826,1291011.3924589179
4827,2.42494024860207e-8
2,10, 1,10, 0,18, 0.00,60.00,Saturday
4973,-0.9003274547780771
4826,1307593.172641417
4827,2.8239810490049423e-8
2,10, 1,10, 0,19, 0.00,60.00,Saturday
4973,-0.8978505824793786
4826,1342015.3003891018
4827,1.156195139628835e-8
2,10, 1,10, 0,20, 0.00,60.00,Saturday
4973,-0.897062029744777
4826,1258174.4049108057
4827,4.3792169890366497e-8
2,10, 1,10, 0,21, 0.00,60.00,Saturday
4973,-0.8961864726310566
4826,1236801.6601133829
4827,5.48936895938823e-8
2,10, 1,10, 0,22, 0.00,60.00,Saturday
4973,-0.8915623405647004
4826,1225029.2352391044
4827,2.829096956702415e-8
2,10, 1,10, 0,23, 0.00,60.00,Saturday
4973,-0.8848055216182098
4826,1225190.8892651762
4827,3.519744495861232e-8
2,10, 1,10, 0,24, 0.00,60.00,Saturday
4973,-0.8784896646412981
4826,1203393.3653050757
4827,8.901679393602535e-9
2,11, 1,11, 0, 1, 0.00,60.00,Sunday
4973,-0.8790946042576582
4826,1402993.5589176929
4827,3.133696476912259e-8
2,11, 1,11, 0, 2, 0.00,60.00,Sunday
4973,-0.8839463107447467
4826,1466863.4207576693
4827,3.5709035728359598e-8
2,11, 1,11, 0, 3, 0.00,60.00,Sunday
4973,-0.8902918905995771
4826,1500314.6980277189
4827,9.92486093309708e-9
2,11, 1,11, 0, 4, 0.00,60.00,Sunday
4973,-0.8937229852705397
4826,1512176.8073670518
4827,2.2100721253082157e-8
2,11, 1,11, 0, 5, 0.00,60.00,Sunday
4973,-0.8948042208437441
4826,1526032.5472926
4827,2.9621105568367058e-8
2,11, 1,11, 0, 6, 0.00,60.00,Sunday
4973,-0.8966617664799335
4826,1544537.3471173503
4827,3.1667468647356148e-8
2,11, 1,11, 0, 7, 0.00,60.00,Sunday
4973,-0.8992950130227573
4826,1559487.7143551114
4827,7.192966222646646e-8
2,11, 1,11, 0, 8, 0.00,60.00,Sunday
4973,-0.900539884502237
4826,1542510.7173730774
4827,5.252161372482078e-8
2,11, 1,11, 0, 9, 0.00,60.00,Sunday
4973,-0.8993547341042845
4826,1523098.8325770745
4827,3.5862512959283779e-8
2,11, 1,11, 0,10, 0.00,60.00,Sunday
4973,-0.8943219272538209
4826,1447136.6695864108
4827,4.5992010200279768e-8
2,11, 1,11, 0,11, 0.00,60.00,Sunday
4973,-0.8875065718914768
4826,1447339.0478349145
4827,5.37681899004383e-8
2,11, 1,11, 0,12, 0.00,60.00,Sunday
4973,-0.8818372168152867
4826,1407311.143800364
4827,2.8751401259796695e-8
2,11, 1,11, 0,13, 0.00,60.00,Sunday
4973,-0.8776629964553195
4826,1374302.780105048
4827,3.765308065339923e-8
2,11, 1,11, 0,14, 0.00,60.00,Sunday
4973,-0.8740917339462719
4826,1352125.1541416643
4827,2.936531018349342e-8
2,11, 1,11, 0,15, 0.00,60.00,Sunday
4973,-0.870821006145566
4826,1262432.5096883816
4827,1.3096723705530167e-8
2,11, 1,11, 0,16, 0.00,60.00,Sunday
4973,-0.8670546107519236
4826,1232356.2815090228
4827,2.5016788640641608e-8
2,11, 1,11, 0,17, 0.00,60.00,Sunday
4973,-0.8651820210334632
4826,1271669.921994226
4827,2.9672264645341785e-8
2,11, 1,11, 0,18, 0.00,60.00,Sunday
4973,-0.8646408466831783
4826,1260994.3317232482
4827,2.6398083718959243e-8
2,11, 1,11, 0,19, 0.00,60.00,Sunday
4973,-0.8622815273372055
4826,1238333.7617340219
4827,5.085212251287885e-8
2,11, 1,11, 0,20, 0.00,60.00,Sunday
4973,-0.859707143580053
4826,1098216.9722219178
4827,1.0334133548894897e-8
2,11, 1,11, 0,21, 0.00,60.00,Sunday
4973,-0.8569287296790901
4826,1041027.3207438144
4827,1.61662683240138e-8
2,11, 1,11, 0,22, 0.00,60.00,Sunday
4973,-0.854116795609704
4826,1023521.4459012476
4827,2.3021584638627247e-8
2,11, 1,11, 0,23, 0.00,60.00,Sunday
4973,-0.853157667611641
4826,1011612.8679725655
4827,1.192006493511144e-8
2,11, 1,11, 0,24, 0.00,60.00,Sunday
4973,-0.8524643333697112
4826,950520.4670677498
4827,3.657874003692996e-8
2,12, 1,12, 0, 1, 0.00,60.00,Monday
4973,-0.853515612646729
4826,1093135.1586128632
4827,3.647215862656594e-8
2,12, 1,12, 0, 2, 0.00,60.00,Monday
4973,-0.8546265638343813
4826,1104299.3910032144
4827,4.6554760047001767e-8
2,12, 1,12, 0, 3, 0.00,60.00,Monday
4973,-0.8563565712915717
4826,1134522.699210073
4827,6.133973329269793e-8
2,12, 1,12, 0, 4, 0.00,60.00,Monday
4973,-0.8576363107357637
4826,1162303.6454115506
4827,9.822542779147625e-9
2,12, 1,12, 0, 5, 0.00,60.00,Monday
4973,-0.8573824129619713
4826,1187839.2524154317
4827,4.292246558179613e-8
2,12, 1,12, 0, 6, 0.00,60.00,Monday
4973,-0.8556105941983446
4826,1211647.498157711
4827,4.6145487431203949e-8
2,12, 1,12, 0, 7, 0.00,60.00,Monday
4973,-0.8527420115190307
4826,1227715.5967917075
4827,6.845084499218501e-8
2,12, 1,12, 0, 8, 0.00,60.00,Monday
4973,-1.2887461799322613
4826,0.0
4827,0.0
2,12, 1,12, 0, 9, 0.00,60.00,Monday
4973,-1.5212416276165864
4826,0.0
4827,0.0
2,12, 1,12, 0,10, 0.00,60.00,Monday
4973,-1.5241433865706993
4826,0.0
4827,0.0
2,12, 1,12, 0,11, 0.00,60.00,Monday
4973,-1.5256512275677839
4826,0.0
4827,0.0
2,12, 1,12, 0,12, 0.00,60.00,Monday
4973,-1.5315385268922608
4826,0.0
4827,0.0
2,12, 1,12, 0,13, 0.00,60.00,Monday
4973,-1.5344114947722325
4826,0.0
4827,0.0
2,12, 1,12, 0,14, 0.00,60.00,Monday
4973,-1.5402566410591439
4826,0.0
4827,0.0
2,12, 1,12, 0,15, 0.00,60.00,Monday
4973,-1.5390738401362379
4826,0.0
4827,0.0
2,12, 1,12, 0,16, 0.00,60.00,Monday
4973,-1.530932723765324
4826,0.0
4827,0.0
2,12, 1,12, 0,17, 0.00,60.00,Monday
4973,-1.520343098974572
4826,0.0
4827,0.0
2,12, 1,12, 0,18, 0.00,60.00,Monday
4973,-1.5111071724154229
4826,0.0
4827,0.0
2,12, 1,12, 0,19, 0.00,60.00,Monday
4973,-1.5097538851103809
4826,0.0
4827,0.0
2,12, 1,12, 0,20, 0.00,60.00,Monday
4973,-1.5040818644954107
4826,0.0
4827,0.0
2,12, 1,12, 0,21, 0.00,60.00,Monday
4973,-1.5074403788828497
4826,0.0
4827,0.0
2,12, 1,12, 0,22, 0.00,60.00,Monday
4973,-1.0679952103427193
4826,1950464.9196545687
4827,3.2680418371455747e-8
2,12, 1,12, 0,23, 0.00,60.00,Monday
4973,-0.9194688969469251
4826,1280575.2764021103
4827,1.4631496014771983e-8
2,12, 1,12, 0,24, 0.00,60.00,Monday
4973,-0.9086213505292254
4826,1170268.536142523
4827,1.5091927707544529e-8
2,13, 1,13, 0, 1, 0.00,60.00,Tuesday
4973,-0.9020216668714134
4826,1347968.5458512323
4827,4.1720510844605489
2,13, 1,13, 0, 2, 0.00,60.00,Tuesday
4973,-0.8964143872152981
4826,1339079.5751959573
4827,3.7346126191550869e-8
2,13, 1,13, 0, 3, 0.00,60.00,Tuesday
4973,-0.8914253876371274
4826,1332199.9533484276
4827,9.36211108637508e-8
2,13, 1,13, 0, 4, 0.00,60.00,Tuesday
4973,-0.8870004966952743
4826,1326013.3176041686
4827,1.2227019396959804e-8
2,13, 1,13, 0, 5, 0.00,60.00,Tuesday
4973,-0.882814915006088
4826,1324859.628234023
4827,6.901359483890701e-8
2,13, 1,13, 0, 6, 0.00,60.00,Tuesday
4973,-0.8787453532631551
4826,1327795.2764364479
4827,5.724700713471975e-8
2,13, 1,13, 0, 7, 0.00,60.00,Tuesday
4973,-0.8758270978517353
4826,1328204.8107479714